PSF EXT CMAP CHEQ XPLOR

         2 !NTITLE
* HAVSSN : WH5: WAAAH+ PEPTIDE                                                  
*  DATE:     6/ 7/24     14:18:44      CREATED BY USER: jinyan                  

        88 !NATOM
         1 HAVSSN   79       HSD      CAY      CT3     -0.270000       12.0110           0   0.00000     -0.301140E-02
         2 HAVSSN   79       HSD      HY1      HA       0.900000E-01   1.00800           0   0.00000     -0.301140E-02
         3 HAVSSN   79       HSD      HY2      HA       0.900000E-01   1.00800           0   0.00000     -0.301140E-02
         4 HAVSSN   79       HSD      HY3      HA       0.900000E-01   1.00800           0   0.00000     -0.301140E-02
         5 HAVSSN   79       HSD      CY       C        0.510000       12.0110           0   0.00000     -0.301140E-02
         6 HAVSSN   79       HSD      OY       O       -0.510000       15.9990           0   0.00000     -0.301140E-02
         7 HAVSSN   79       HSD      N        NH1     -0.470000       14.0070           0   0.00000     -0.301140E-02
         8 HAVSSN   79       HSD      HN       H        0.310000       1.00800           0   0.00000     -0.301140E-02
         9 HAVSSN   79       HSD      CA       CT1      0.700000E-01   12.0110           0   0.00000     -0.301140E-02
        10 HAVSSN   79       HSD      HA       HB       0.900000E-01   1.00800           0   0.00000     -0.301140E-02
        11 HAVSSN   79       HSD      CB       CT2     -0.900000E-01   12.0110           0   0.00000     -0.301140E-02
        12 HAVSSN   79       HSD      HB1      HA       0.900000E-01   1.00800           0   0.00000     -0.301140E-02
        13 HAVSSN   79       HSD      HB2      HA       0.900000E-01   1.00800           0   0.00000     -0.301140E-02
        14 HAVSSN   79       HSD      ND1      NR1     -0.360000       14.0070           0   0.00000     -0.301140E-02
        15 HAVSSN   79       HSD      HD1      H        0.320000       1.00800           0   0.00000     -0.301140E-02
        16 HAVSSN   79       HSD      CG       CPH1    -0.500000E-01   12.0110           0   0.00000     -0.301140E-02
        17 HAVSSN   79       HSD      CE1      CPH2     0.250000       12.0110           0   0.00000     -0.301140E-02
        18 HAVSSN   79       HSD      HE1      HR1      0.130000       1.00800           0   0.00000     -0.301140E-02
        19 HAVSSN   79       HSD      NE2      NR2     -0.700000       14.0070           0   0.00000     -0.301140E-02
        20 HAVSSN   79       HSD      CD2      CPH1     0.220000       12.0110           0   0.00000     -0.301140E-02
        21 HAVSSN   79       HSD      HD2      HR3      0.100000       1.00800           0   0.00000     -0.301140E-02
        22 HAVSSN   79       HSD      C        C        0.510000       12.0110           0   0.00000     -0.301140E-02
        23 HAVSSN   79       HSD      O        O       -0.510000       15.9990           0   0.00000     -0.301140E-02
        24 HAVSSN   80       ALA      N        NH1     -0.470000       14.0070           0   0.00000     -0.301140E-02
        25 HAVSSN   80       ALA      HN       H        0.310000       1.00800           0   0.00000     -0.301140E-02
        26 HAVSSN   80       ALA      CA       CT1      0.700000E-01   12.0110           0   0.00000     -0.301140E-02
        27 HAVSSN   80       ALA      HA       HB       0.900000E-01   1.00800           0   0.00000     -0.301140E-02
        28 HAVSSN   80       ALA      CB       CT3     -0.270000       12.0110           0   0.00000     -0.301140E-02
        29 HAVSSN   80       ALA      HB1      HA       0.900000E-01   1.00800           0   0.00000     -0.301140E-02
        30 HAVSSN   80       ALA      HB2      HA       0.900000E-01   1.00800           0   0.00000     -0.301140E-02
        31 HAVSSN   80       ALA      HB3      HA       0.900000E-01   1.00800           0   0.00000     -0.301140E-02
        32 HAVSSN   80       ALA      C        C        0.510000       12.0110           0   0.00000     -0.301140E-02
        33 HAVSSN   80       ALA      O        O       -0.510000       15.9990           0   0.00000     -0.301140E-02
        34 HAVSSN   81       VAL      N        NH1     -0.470000       14.0070           0   0.00000     -0.301140E-02
        35 HAVSSN   81       VAL      HN       H        0.310000       1.00800           0   0.00000     -0.301140E-02
        36 HAVSSN   81       VAL      CA       CT1      0.700000E-01   12.0110           0   0.00000     -0.301140E-02
        37 HAVSSN   81       VAL      HA       HB       0.900000E-01   1.00800           0   0.00000     -0.301140E-02
        38 HAVSSN   81       VAL      CB       CT1     -0.900000E-01   12.0110           0   0.00000     -0.301140E-02
        39 HAVSSN   81       VAL      HB       HA       0.900000E-01   1.00800           0   0.00000     -0.301140E-02
        40 HAVSSN   81       VAL      CG1      CT3     -0.270000       12.0110           0   0.00000     -0.301140E-02
        41 HAVSSN   81       VAL      HG11     HA       0.900000E-01   1.00800           0   0.00000     -0.301140E-02
        42 HAVSSN   81       VAL      HG12     HA       0.900000E-01   1.00800           0   0.00000     -0.301140E-02
        43 HAVSSN   81       VAL      HG13     HA       0.900000E-01   1.00800           0   0.00000     -0.301140E-02
        44 HAVSSN   81       VAL      CG2      CT3     -0.270000       12.0110           0   0.00000     -0.301140E-02
        45 HAVSSN   81       VAL      HG21     HA       0.900000E-01   1.00800           0   0.00000     -0.301140E-02
        46 HAVSSN   81       VAL      HG22     HA       0.900000E-01   1.00800           0   0.00000     -0.301140E-02
        47 HAVSSN   81       VAL      HG23     HA       0.900000E-01   1.00800           0   0.00000     -0.301140E-02
        48 HAVSSN   81       VAL      C        C        0.510000       12.0110           0   0.00000     -0.301140E-02
        49 HAVSSN   81       VAL      O        O       -0.510000       15.9990           0   0.00000     -0.301140E-02
        50 HAVSSN   82       SER      N        NH1     -0.470000       14.0070           0   0.00000     -0.301140E-02
        51 HAVSSN   82       SER      HN       H        0.310000       1.00800           0   0.00000     -0.301140E-02
        52 HAVSSN   82       SER      CA       CT1      0.700000E-01   12.0110           0   0.00000     -0.301140E-02
        53 HAVSSN   82       SER      HA       HB       0.900000E-01   1.00800           0   0.00000     -0.301140E-02
        54 HAVSSN   82       SER      CB       CT2      0.500000E-01   12.0110           0   0.00000     -0.301140E-02
        55 HAVSSN   82       SER      HB1      HA       0.900000E-01   1.00800           0   0.00000     -0.301140E-02
        56 HAVSSN   82       SER      HB2      HA       0.900000E-01   1.00800           0   0.00000     -0.301140E-02
        57 HAVSSN   82       SER      OG       OH1     -0.660000       15.9990           0   0.00000     -0.301140E-02
        58 HAVSSN   82       SER      HG1      H        0.430000       1.00800           0   0.00000     -0.301140E-02
        59 HAVSSN   82       SER      C        C        0.510000       12.0110           0   0.00000     -0.301140E-02
        60 HAVSSN   82       SER      O        O       -0.510000       15.9990           0   0.00000     -0.301140E-02
        61 HAVSSN   83       SER      N        NH1     -0.470000       14.0070           0   0.00000     -0.301140E-02
        62 HAVSSN   83       SER      HN       H        0.310000       1.00800           0   0.00000     -0.301140E-02
        63 HAVSSN   83       SER      CA       CT1      0.700000E-01   12.0110           0   0.00000     -0.301140E-02
        64 HAVSSN   83       SER      HA       HB       0.900000E-01   1.00800           0   0.00000     -0.301140E-02
        65 HAVSSN   83       SER      CB       CT2      0.500000E-01   12.0110           0   0.00000     -0.301140E-02
        66 HAVSSN   83       SER      HB1      HA       0.900000E-01   1.00800           0   0.00000     -0.301140E-02
        67 HAVSSN   83       SER      HB2      HA       0.900000E-01   1.00800           0   0.00000     -0.301140E-02
        68 HAVSSN   83       SER      OG       OH1     -0.660000       15.9990           0   0.00000     -0.301140E-02
        69 HAVSSN   83       SER      HG1      H        0.430000       1.00800           0   0.00000     -0.301140E-02
        70 HAVSSN   83       SER      C        C        0.510000       12.0110           0   0.00000     -0.301140E-02
        71 HAVSSN   83       SER      O        O       -0.510000       15.9990           0   0.00000     -0.301140E-02
        72 HAVSSN   84       ASN      N        NH1     -0.470000       14.0070           0   0.00000     -0.301140E-02
        73 HAVSSN   84       ASN      HN       H        0.310000       1.00800           0   0.00000     -0.301140E-02
        74 HAVSSN   84       ASN      CA       CT1      0.700000E-01   12.0110           0   0.00000     -0.301140E-02
        75 HAVSSN   84       ASN      HA       HB       0.900000E-01   1.00800           0   0.00000     -0.301140E-02
        76 HAVSSN   84       ASN      CB       CT2     -0.180000       12.0110           0   0.00000     -0.301140E-02
        77 HAVSSN   84       ASN      HB1      HA       0.900000E-01   1.00800           0   0.00000     -0.301140E-02
        78 HAVSSN   84       ASN      HB2      HA       0.900000E-01   1.00800           0   0.00000     -0.301140E-02
        79 HAVSSN   84       ASN      CG       CC       0.550000       12.0110           0   0.00000     -0.301140E-02
        80 HAVSSN   84       ASN      OD1      O       -0.550000       15.9990           0   0.00000     -0.301140E-02
        81 HAVSSN   84       ASN      ND2      NH2     -0.620000       14.0070           0   0.00000     -0.301140E-02
        82 HAVSSN   84       ASN      HD21     H        0.320000       1.00800           0   0.00000     -0.301140E-02
        83 HAVSSN   84       ASN      HD22     H        0.300000       1.00800           0   0.00000     -0.301140E-02
        84 HAVSSN   84       ASN      C        CC       0.550000       12.0110           0   0.00000     -0.301140E-02
        85 HAVSSN   84       ASN      O        O       -0.550000       15.9990           0   0.00000     -0.301140E-02
        86 HAVSSN   84       ASN      NT       NH2     -0.620000       14.0070           0   0.00000     -0.301140E-02
        87 HAVSSN   84       ASN      HT1      H        0.320000       1.00800           0   0.00000     -0.301140E-02
        88 HAVSSN   84       ASN      HT2      H        0.300000       1.00800           0   0.00000     -0.301140E-02

        88 !NBOND: bonds
         5         1         5         7         1         2         1         3
         1         4         6         5        11         9        16        11
        14        16        17        14        19        20         7         8
         7         9        22         9        22        24         9        10
        11        12        11        13        14        15        20        21
        17        18        23        22        16        20        17        19
        28        26        24        25        24        26        32        26
        32        34        26        27        28        29        28        30
        28        31        33        32        38        36        40        38
        44        38        34        35        34        36        48        36
        48        50        36        37        38        39        40        41
        40        42        40        43        44        45        44        46
        44        47        49        48        54        52        57        54
        50        51        50        52        59        52        59        61
        52        53        54        55        54        56        57        58
        60        59        65        63        68        65        61        62
        61        63        70        63        70        72        63        64
        65        66        65        67        68        69        71        70
        76        74        79        76        81        79        72        73
        72        74        84        74        74        75        76        77
        76        78        81        82        81        83        84        85
        79        80        84        86        86        87        86        88

       153 !NTHETA: angles
         2         1         3         2         1         4         2         1         5
         3         1         4         3         1         5         4         1         5
         1         5         6         1         5         7         6         5         7
         5         7         8         5         7         9         8         7         9
         7         9        10         7         9        11         7         9        22
        10         9        11        10         9        22        11         9        22
         9        11        12         9        11        13         9        11        16
        12        11        13        12        11        16        13        11        16
        15        14        16        15        14        17        16        14        17
        11        16        14        11        16        20        14        16        20
        14        17        18        14        17        19        18        17        19
        17        19        20        16        20        19        16        20        21
        19        20        21         9        22        23         9        22        24
        23        22        24        22        24        25        22        24        26
        25        24        26        24        26        27        24        26        28
        24        26        32        27        26        28        27        26        32
        28        26        32        26        28        29        26        28        30
        26        28        31        29        28        30        29        28        31
        30        28        31        26        32        33        26        32        34
        33        32        34        32        34        35        32        34        36
        35        34        36        34        36        37        34        36        38
        34        36        48        37        36        38        37        36        48
        38        36        48        36        38        39        36        38        40
        36        38        44        39        38        40        39        38        44
        40        38        44        38        40        41        38        40        42
        38        40        43        41        40        42        41        40        43
        42        40        43        38        44        45        38        44        46
        38        44        47        45        44        46        45        44        47
        46        44        47        36        48        49        36        48        50
        49        48        50        48        50        51        48        50        52
        51        50        52        50        52        53        50        52        54
        50        52        59        53        52        54        53        52        59
        54        52        59        52        54        55        52        54        56
        52        54        57        55        54        56        55        54        57
        56        54        57        54        57        58        52        59        60
        52        59        61        60        59        61        59        61        62
        59        61        63        62        61        63        61        63        64
        61        63        65        61        63        70        64        63        65
        64        63        70        65        63        70        63        65        66
        63        65        67        63        65        68        66        65        67
        66        65        68        67        65        68        65        68        69
        63        70        71        63        70        72        71        70        72
        70        72        73        70        72        74        73        72        74
        72        74        75        72        74        76        72        74        84
        75        74        76        75        74        84        76        74        84
        74        76        77        74        76        78        74        76        79
        77        76        78        77        76        79        78        76        79
        76        79        80        76        79        81        80        79        81
        79        81        82        79        81        83        82        81        83
        74        84        85        74        84        86        85        84        86
        84        86        87        84        86        88        87        86        88

       216 !NPHI: dihedrals
         1         5         7         8         1         5         7         9
         2         1         5         6         2         1         5         7
         3         1         5         6         3         1         5         7
         4         1         5         6         4         1         5         7
         5         7         9        10         5         7         9        11
         5         7         9        22         6         5         7         8
         6         5         7         9         7         9        11        12
         7         9        11        13         7         9        11        16
         7         9        22        23         7         9        22        24
         8         7         9        10         8         7         9        11
         8         7         9        22         9        11        16        14
         9        11        16        20         9        22        24        25
         9        22        24        26        10         9        11        12
        10         9        11        13        10         9        11        16
        10         9        22        23        10         9        22        24
        11         9        22        23        11         9        22        24
        11        16        14        15        11        16        14        17
        11        16        20        19        11        16        20        21
        12        11         9        22        12        11        16        14
        12        11        16        20        13        11         9        22
        13        11        16        14        13        11        16        20
        14        16        20        19        14        16        20        21
        14        17        19        20        15        14        16        20
        15        14        17        18        15        14        17        19
        16        11         9        22        16        14        17        18
        16        14        17        19        16        20        19        17
        17        14        16        20        17        19        20        21
        18        17        19        20        22        24        26        27
        22        24        26        28        22        24        26        32
        23        22        24        25        23        22        24        26
        24        26        28        29        24        26        28        30
        24        26        28        31        24        26        32        33
        24        26        32        34        25        24        26        27
        25        24        26        28        25        24        26        32
        26        32        34        35        26        32        34        36
        27        26        28        29        27        26        28        30
        27        26        28        31        27        26        32        33
        27        26        32        34        28        26        32        33
        28        26        32        34        29        28        26        32
        30        28        26        32        31        28        26        32
        32        34        36        37        32        34        36        38
        32        34        36        48        33        32        34        35
        33        32        34        36        34        36        38        39
        34        36        38        40        34        36        38        44
        34        36        48        49        34        36        48        50
        35        34        36        37        35        34        36        38
        35        34        36        48        36        38        40        41
        36        38        40        42        36        38        40        43
        36        38        44        45        36        38        44        46
        36        38        44        47        36        48        50        51
        36        48        50        52        37        36        38        39
        37        36        38        40        37        36        38        44
        37        36        48        49        37        36        48        50
        38        36        48        49        38        36        48        50
        39        38        36        48        39        38        40        41
        39        38        40        42        39        38        40        43
        39        38        44        45        39        38        44        46
        39        38        44        47        40        38        36        48
        40        38        44        45        40        38        44        46
        40        38        44        47        41        40        38        44
        42        40        38        44        43        40        38        44
        44        38        36        48        48        50        52        53
        48        50        52        54        48        50        52        59
        49        48        50        51        49        48        50        52
        50        52        54        55        50        52        54        56
        50        52        54        57        50        52        59        60
        50        52        59        61        51        50        52        53
        51        50        52        54        51        50        52        59
        52        54        57        58        52        59        61        62
        52        59        61        63        53        52        54        55
        53        52        54        56        53        52        54        57
        53        52        59        60        53        52        59        61
        54        52        59        60        54        52        59        61
        55        54        52        59        55        54        57        58
        56        54        52        59        56        54        57        58
        57        54        52        59        59        61        63        64
        59        61        63        65        59        61        63        70
        60        59        61        62        60        59        61        63
        61        63        65        66        61        63        65        67
        61        63        65        68        61        63        70        71
        61        63        70        72        62        61        63        64
        62        61        63        65        62        61        63        70
        63        65        68        69        63        70        72        73
        63        70        72        74        64        63        65        66
        64        63        65        67        64        63        65        68
        64        63        70        71        64        63        70        72
        65        63        70        71        65        63        70        72
        66        65        63        70        66        65        68        69
        67        65        63        70        67        65        68        69
        68        65        63        70        70        72        74        75
        70        72        74        76        70        72        74        84
        71        70        72        73        71        70        72        74
        72        74        76        77        72        74        76        78
        72        74        76        79        72        74        84        85
        72        74        84        86        73        72        74        75
        73        72        74        76        73        72        74        84
        74        76        79        80        74        76        79        81
        74        84        86        87        74        84        86        88
        75        74        76        77        75        74        76        78
        75        74        76        79        75        74        84        85
        75        74        84        86        76        74        84        85
        76        74        84        86        76        79        81        82
        76        79        81        83        77        76        74        84
        77        76        79        80        77        76        79        81
        78        76        74        84        78        76        79        80
        78        76        79        81        79        76        74        84
        80        79        81        82        80        79        81        83
        85        84        86        87        85        84        86        88

        26 !NIMPHI: impropers
         5         1         7         6         7         5         9         8
        14        16        17        15        20        16        19        21
        17        14        19        18        14        17        16        15
        20        19        16        21        17        19        14        18
        22         9        24        23        24        22        26        25
        32        26        34        33        34        32        36        35
        48        36        50        49        50        48        52        51
        59        52        61        60        61        59        63        62
        70        63        72        71        72        70        74        73
        79        81        76        80        79        76        81        80
        81        79        82        83        81        79        83        82
        84        86        74        85        84        74        86        85
        86        84        87        88        86        84        88        87

        13 !NDON: donors
         7         8        14        15        24        25        34        35
        50        51        57        58        61        62        68        69
        72        73        81        82        81        83        86        87
        86        88

        11 !NACC: acceptors
         6         5        19         0        23        22        33        32
        49        48        57         0        60        59        68         0
        71        70        80        79        85        84

         0 !NNB

         0         0         0         0         0         0         0         0
         0         0         0         0         0         0         0         0
         0         0         0         0         0         0         0         0
         0         0         0         0         0         0         0         0
         0         0         0         0         0         0         0         0
         0         0         0         0         0         0         0         0
         0         0         0         0         0         0         0         0
         0         0         0         0         0         0         0         0
         0         0         0         0         0         0         0         0
         0         0         0         0         0         0         0         0
         0         0         0         0         0         0         0         0

        26         0 !NGRP NST2
         0         1         0         4         1         0         6         1         0
        10         1         0        16         1         0        21         1         0
        23         1         0        27         1         0        31         1         0
        33         1         0        37         1         0        39         1         0
        43         1         0        47         1         0        49         1         0
        53         1         0        58         1         0        60         1         0
        64         1         0        69         1         0        71         1         0
        75         1         0        78         1         0        80         1         0
        83         1         0        85         1         0

         1 !MOLNT
         1         1         1         1         1         1         1         1
         1         1         1         1         1         1         1         1
         1         1         1         1         1         1         1         1
         1         1         1         1         1         1         1         1
         1         1         1         1         1         1         1         1
         1         1         1         1         1         1         1         1
         1         1         1         1         1         1         1         1
         1         1         1         1         1         1         1         1
         1         1         1         1         1         1         1         1
         1         1         1         1         1         1         1         1
         1         1         1         1         1         1         1         1

         0         0 !NUMLP NUMLPH

         5 !NCRTERM: cross-terms
         5         7         9        22         7         9        22        24
        22        24        26        32        24        26        32        34
        32        34        36        48        34        36        48        50
        48        50        52        59        50        52        59        61
        59        61        63        70        61        63        70        72
