* HAVSSN : WH5: WAAAH+ PEPTIDE  ENERGY MINIMIZED
*  DATE:     6/ 7/24     14:18:44      CREATED BY USER: jinyan
*
        88  EXT
         1         1  HSD       CAY            -1.8045245708        0.5270325356        1.2027003434  HAVSSN    79              0.0000000000
         2         1  HSD       HY1            -2.1895131237        0.9318377434        2.1628912008  HAVSSN    79              0.0000000000
         3         1  HSD       HY2            -2.1567718278       -0.5193509636        1.0821105849  HAVSSN    79              0.0000000000
         4         1  HSD       HY3            -2.2000867756        1.1483801593        0.3710122540  HAVSSN    79              0.0000000000
         5         1  HSD       CY             -0.3244352357        0.5649484812        1.2099817146  HAVSSN    79              0.0000000000
         6         1  HSD       OY              0.3011754203        0.9755140188        2.1783804942  HAVSSN    79              0.0000000000
         7         1  HSD       N               0.2878273248        0.1099778599        0.1070669595  HAVSSN    79              0.0000000000
         8         1  HSD       HN             -0.2561282925       -0.2018315172       -0.6620731401  HAVSSN    79              0.0000000000
         9         1  HSD       CA              1.7245845956        0.2070400738       -0.0877957129  HAVSSN    79              0.0000000000
        10         1  HSD       HA              2.2009302407       -0.1282273937        0.8229467372  HAVSSN    79              0.0000000000
        11         1  HSD       CB              2.1971515204       -0.6966636591       -1.2532974580  HAVSSN    79              0.0000000000
        12         1  HSD       HB1             1.7490652071       -0.3389768167       -2.2049441459  HAVSSN    79              0.0000000000
        13         1  HSD       HB2             1.8346515755       -1.7317171904       -1.0734710915  HAVSSN    79              0.0000000000
        14         1  HSD       ND1             4.5556526244       -1.2576285517       -0.4733169233  HAVSSN    79              0.0000000000
        15         1  HSD       HD1             4.3037145013       -1.7173507834        0.3784051052  HAVSSN    79              0.0000000000
        16         1  HSD       CG              3.6902609094       -0.7432796183       -1.4164486887  HAVSSN    79              0.0000000000
        17         1  HSD       CE1             5.8114683045       -1.0883774984       -0.9574346526  HAVSSN    79              0.0000000000
        18         1  HSD       HE1             6.7086549166       -1.3933120682       -0.4192952647  HAVSSN    79              0.0000000000
        19         1  HSD       NE2             5.8073878075       -0.5097004773       -2.1403623610  HAVSSN    79              0.0000000000
        20         1  HSD       CD2             4.4751545615       -0.2849455525       -2.4307489967  HAVSSN    79              0.0000000000
        21         1  HSD       HD2             4.1919154152        0.2009280401       -3.3586574426  HAVSSN    79              0.0000000000
        22         1  HSD       C               2.1808238370        1.6393137621       -0.3277498620  HAVSSN    79              0.0000000000
        23         1  HSD       O               1.5739144717        2.3706658624       -1.1065190851  HAVSSN    79              0.0000000000
        24         2  ALA       N               3.2733079289        2.0669578485        0.3314879287  HAVSSN    80              0.0000000000
        25         2  ALA       HN              3.7978969767        1.4820615119        0.9424813384  HAVSSN    80              0.0000000000
        26         2  ALA       CA              3.7565163220        3.4181286053        0.2163790220  HAVSSN    80              0.0000000000
        27         2  ALA       HA              3.5440158649        3.7997582266       -0.7738076174  HAVSSN    80              0.0000000000
        28         2  ALA       CB              3.1067166911        4.3213829958        1.2861508559  HAVSSN    80              0.0000000000
        29         2  ALA       HB1             3.3574469049        3.9646526163        2.3088981021  HAVSSN    80              0.0000000000
        30         2  ALA       HB2             2.0015736382        4.2888795675        1.1760304255  HAVSSN    80              0.0000000000
        31         2  ALA       HB3             3.4356752003        5.3762225321        1.1819691504  HAVSSN    80              0.0000000000
        32         2  ALA       C               5.2614733354        3.4131924274        0.3831661592  HAVSSN    80              0.0000000000
        33         2  ALA       O               5.8133968175        2.6280982230        1.1520970252  HAVSSN    80              0.0000000000
        34         3  VAL       N               5.9599122942        4.2989420148       -0.3497187448  HAVSSN    81              0.0000000000
        35         3  VAL       HN              5.5039648830        4.9449519408       -0.9560119150  HAVSSN    81              0.0000000000
        36         3  VAL       CA              7.4010467182        4.4305791752       -0.3359152849  HAVSSN    81              0.0000000000
        37         3  VAL       HA              7.7931764993        4.0966436293        0.6131624789  HAVSSN    81              0.0000000000
        38         3  VAL       CB              8.0953697440        3.7059418267       -1.4991883361  HAVSSN    81              0.0000000000
        39         3  VAL       HB              7.6983609323        4.0957094701       -2.4660188108  HAVSSN    81              0.0000000000
        40         3  VAL       CG1             9.6245916559        3.9122587542       -1.4603949612  HAVSSN    81              0.0000000000
        41         3  VAL       HG11           10.0394867378        3.5701334944       -0.4877953487  HAVSSN    81              0.0000000000
        42         3  VAL       HG12            9.9023027325        4.9724217665       -1.6208733215  HAVSSN    81              0.0000000000
        43         3  VAL       HG13           10.1031010937        3.3172266820       -2.2681041511  HAVSSN    81              0.0000000000
        44         3  VAL       CG2             7.8005868884        2.1952339891       -1.4339788151  HAVSSN    81              0.0000000000
        45         3  VAL       HG21            6.7182994845        1.9916872839       -1.5682201402  HAVSSN    81              0.0000000000
        46         3  VAL       HG22            8.1154928925        1.7704143228       -0.4572461347  HAVSSN    81              0.0000000000
        47         3  VAL       HG23            8.3408836712        1.6589359417       -2.2422885891  HAVSSN    81              0.0000000000
        48         3  VAL       C               7.6225646793        5.9229596492       -0.4609894628  HAVSSN    81              0.0000000000
        49         3  VAL       O               6.8508049945        6.6113628257       -1.1264601896  HAVSSN    81              0.0000000000
        50         4  SER       N               8.6528360055        6.4852929610        0.1980048289  HAVSSN    82              0.0000000000
        51         4  SER       HN              9.2952029411        5.9493723253        0.7408109891  HAVSSN    82              0.0000000000
        52         4  SER       CA              8.9608765370        7.8984825253        0.0929203228  HAVSSN    82              0.0000000000
        53         4  SER       HA              8.7698610426        8.2347784906       -0.9178812105  HAVSSN    82              0.0000000000
        54         4  SER       CB              8.1673965120        8.7702600936        1.1017684622  HAVSSN    82              0.0000000000
        55         4  SER       HB1             8.4812490484        8.5283575408        2.1412775083  HAVSSN    82              0.0000000000
        56         4  SER       HB2             7.0868057691        8.5185843253        0.9980920779  HAVSSN    82              0.0000000000
        57         4  SER       OG              8.3461224030       10.1630960735        0.8413398150  HAVSSN    82              0.0000000000
        58         4  SER       HG1             7.8266739105       10.6531706432        1.4869495207  HAVSSN    82              0.0000000000
        59         4  SER       C              10.4399177971        8.0427634246        0.3633560855  HAVSSN    82              0.0000000000
        60         4  SER       O              11.0513152791        7.1688807003        0.9769569894  HAVSSN    82              0.0000000000
        61         5  SER       N              11.0614067962        9.1311183541       -0.1130396313  HAVSSN    83              0.0000000000
        62         5  SER       HN             10.5379213618        9.8568356109       -0.5659036569  HAVSSN    83              0.0000000000
        63         5  SER       CA             12.4618183886        9.4237711228        0.1179678677  HAVSSN    83              0.0000000000
        64         5  SER       HA             12.7034759753        9.2211622397        1.1527148997  HAVSSN    83              0.0000000000
        65         5  SER       CB             13.4055240095        8.6204104707       -0.8222512141  HAVSSN    83              0.0000000000
        66         5  SER       HB1            13.1585767394        8.8489120211       -1.8831692033  HAVSSN    83              0.0000000000
        67         5  SER       HB2            13.2149081314        7.5362662554       -0.6516202006  HAVSSN    83              0.0000000000
        68         5  SER       OG             14.7887619638        8.8956181513       -0.5762150696  HAVSSN    83              0.0000000000
        69         5  SER       HG1            15.2941424806        8.2116904757       -1.0344004083  HAVSSN    83              0.0000000000
        70         5  SER       C              12.6370366809       10.9016517482       -0.1394123175  HAVSSN    83              0.0000000000
        71         5  SER       O              11.8916660305       11.4865254665       -0.9186435466  HAVSSN    83              0.0000000000
        72         6  ASN       N              13.6326067789       11.5419737153        0.5022809661  HAVSSN    84              0.0000000000
        73         6  ASN       HN             14.2109508230       11.0388218676        1.1378033896  HAVSSN    84              0.0000000000
        74         6  ASN       CA             13.9729947795       12.9355135936        0.2648801781  HAVSSN    84              0.0000000000
        75         6  ASN       HA             13.2086677380       13.3916651444       -0.3555529765  HAVSSN    84              0.0000000000
        76         6  ASN       CB             14.0174439279       13.6754841677        1.6346282833  HAVSSN    84              0.0000000000
        77         6  ASN       HB1            15.0021472780       13.5670249063        2.1265303981  HAVSSN    84              0.0000000000
        78         6  ASN       HB2            13.2451763278       13.2169767537        2.2934716470  HAVSSN    84              0.0000000000
        79         6  ASN       CG             13.6405716331       15.1559253210        1.5597389048  HAVSSN    84              0.0000000000
        80         6  ASN       OD1            12.6470109411       15.5806353369        2.1518464276  HAVSSN    84              0.0000000000
        81         6  ASN       ND2            14.4394294870       15.9701668794        0.8412542249  HAVSSN    84              0.0000000000
        82         6  ASN       HD21           15.1727091274       15.5629004363        0.2875118893  HAVSSN    84              0.0000000000
        83         6  ASN       HD22           14.2162269038       16.9392837397        0.8261263760  HAVSSN    84              0.0000000000
        84         6  ASN       C              15.3245417512       13.0645171170       -0.5208998431  HAVSSN    84              0.0000000000
        85         6  ASN       O              15.9186031909       14.1381685085       -0.6233308230  HAVSSN    84              0.0000000000
        86         6  ASN       NT             15.8308040413       11.9472033834       -1.0997808722  HAVSSN    84              0.0000000000
        87         6  ASN       HT1            16.6689651682       12.0499116911       -1.6273633475  HAVSSN    84              0.0000000000
        88         6  ASN       HT2            15.3427205074       11.0779873388       -1.0178927909  HAVSSN    84              0.0000000000
