PSF EXT CMAP CHEQ XPLOR

         2 !NTITLE
* DWVIPP : WH5: WAAAH+ PEPTIDE                                                  
*  DATE:     6/12/24     21:53:50      CREATED BY USER: jinyan                  

       108 !NATOM
         1 DWVIPP   1        ASP      CAY      CT3     -0.270000       12.0110           0   0.00000     -0.301140E-02
         2 DWVIPP   1        ASP      HY1      HA       0.900000E-01   1.00800           0   0.00000     -0.301140E-02
         3 DWVIPP   1        ASP      HY2      HA       0.900000E-01   1.00800           0   0.00000     -0.301140E-02
         4 DWVIPP   1        ASP      HY3      HA       0.900000E-01   1.00800           0   0.00000     -0.301140E-02
         5 DWVIPP   1        ASP      CY       C        0.510000       12.0110           0   0.00000     -0.301140E-02
         6 DWVIPP   1        ASP      OY       O       -0.510000       15.9990           0   0.00000     -0.301140E-02
         7 DWVIPP   1        ASP      N        NH1     -0.470000       14.0070           0   0.00000     -0.301140E-02
         8 DWVIPP   1        ASP      HN       H        0.310000       1.00800           0   0.00000     -0.301140E-02
         9 DWVIPP   1        ASP      CA       CT1      0.700000E-01   12.0110           0   0.00000     -0.301140E-02
        10 DWVIPP   1        ASP      HA       HB       0.900000E-01   1.00800           0   0.00000     -0.301140E-02
        11 DWVIPP   1        ASP      CB       CT2     -0.280000       12.0110           0   0.00000     -0.301140E-02
        12 DWVIPP   1        ASP      HB1      HA       0.900000E-01   1.00800           0   0.00000     -0.301140E-02
        13 DWVIPP   1        ASP      HB2      HA       0.900000E-01   1.00800           0   0.00000     -0.301140E-02
        14 DWVIPP   1        ASP      CG       CC       0.620000       12.0110           0   0.00000     -0.301140E-02
        15 DWVIPP   1        ASP      OD1      OC      -0.760000       15.9990           0   0.00000     -0.301140E-02
        16 DWVIPP   1        ASP      OD2      OC      -0.760000       15.9990           0   0.00000     -0.301140E-02
        17 DWVIPP   1        ASP      C        C        0.510000       12.0110           0   0.00000     -0.301140E-02
        18 DWVIPP   1        ASP      O        O       -0.510000       15.9990           0   0.00000     -0.301140E-02
        19 DWVIPP   2        TRP      N        NH1     -0.470000       14.0070           0   0.00000     -0.301140E-02
        20 DWVIPP   2        TRP      HN       H        0.310000       1.00800           0   0.00000     -0.301140E-02
        21 DWVIPP   2        TRP      CA       CT1      0.700000E-01   12.0110           0   0.00000     -0.301140E-02
        22 DWVIPP   2        TRP      HA       HB       0.900000E-01   1.00800           0   0.00000     -0.301140E-02
        23 DWVIPP   2        TRP      CB       CT2     -0.180000       12.0110           0   0.00000     -0.301140E-02
        24 DWVIPP   2        TRP      HB1      HA       0.900000E-01   1.00800           0   0.00000     -0.301140E-02
        25 DWVIPP   2        TRP      HB2      HA       0.900000E-01   1.00800           0   0.00000     -0.301140E-02
        26 DWVIPP   2        TRP      CG       CY      -0.300000E-01   12.0110           0   0.00000     -0.301140E-02
        27 DWVIPP   2        TRP      CD1      CA       0.350000E-01   12.0110           0   0.00000     -0.301140E-02
        28 DWVIPP   2        TRP      HD1      HP       0.115000       1.00800           0   0.00000     -0.301140E-02
        29 DWVIPP   2        TRP      NE1      NY      -0.610000       14.0070           0   0.00000     -0.301140E-02
        30 DWVIPP   2        TRP      HE1      H        0.380000       1.00800           0   0.00000     -0.301140E-02
        31 DWVIPP   2        TRP      CE2      CPT      0.130000       12.0110           0   0.00000     -0.301140E-02
        32 DWVIPP   2        TRP      CD2      CPT     -0.200000E-01   12.0110           0   0.00000     -0.301140E-02
        33 DWVIPP   2        TRP      CE3      CA      -0.115000       12.0110           0   0.00000     -0.301140E-02
        34 DWVIPP   2        TRP      HE3      HP       0.115000       1.00800           0   0.00000     -0.301140E-02
        35 DWVIPP   2        TRP      CZ3      CA      -0.115000       12.0110           0   0.00000     -0.301140E-02
        36 DWVIPP   2        TRP      HZ3      HP       0.115000       1.00800           0   0.00000     -0.301140E-02
        37 DWVIPP   2        TRP      CZ2      CA      -0.115000       12.0110           0   0.00000     -0.301140E-02
        38 DWVIPP   2        TRP      HZ2      HP       0.115000       1.00800           0   0.00000     -0.301140E-02
        39 DWVIPP   2        TRP      CH2      CA      -0.115000       12.0110           0   0.00000     -0.301140E-02
        40 DWVIPP   2        TRP      HH2      HP       0.115000       1.00800           0   0.00000     -0.301140E-02
        41 DWVIPP   2        TRP      C        C        0.510000       12.0110           0   0.00000     -0.301140E-02
        42 DWVIPP   2        TRP      O        O       -0.510000       15.9990           0   0.00000     -0.301140E-02
        43 DWVIPP   3        VAL      N        NH1     -0.470000       14.0070           0   0.00000     -0.301140E-02
        44 DWVIPP   3        VAL      HN       H        0.310000       1.00800           0   0.00000     -0.301140E-02
        45 DWVIPP   3        VAL      CA       CT1      0.700000E-01   12.0110           0   0.00000     -0.301140E-02
        46 DWVIPP   3        VAL      HA       HB       0.900000E-01   1.00800           0   0.00000     -0.301140E-02
        47 DWVIPP   3        VAL      CB       CT1     -0.900000E-01   12.0110           0   0.00000     -0.301140E-02
        48 DWVIPP   3        VAL      HB       HA       0.900000E-01   1.00800           0   0.00000     -0.301140E-02
        49 DWVIPP   3        VAL      CG1      CT3     -0.270000       12.0110           0   0.00000     -0.301140E-02
        50 DWVIPP   3        VAL      HG11     HA       0.900000E-01   1.00800           0   0.00000     -0.301140E-02
        51 DWVIPP   3        VAL      HG12     HA       0.900000E-01   1.00800           0   0.00000     -0.301140E-02
        52 DWVIPP   3        VAL      HG13     HA       0.900000E-01   1.00800           0   0.00000     -0.301140E-02
        53 DWVIPP   3        VAL      CG2      CT3     -0.270000       12.0110           0   0.00000     -0.301140E-02
        54 DWVIPP   3        VAL      HG21     HA       0.900000E-01   1.00800           0   0.00000     -0.301140E-02
        55 DWVIPP   3        VAL      HG22     HA       0.900000E-01   1.00800           0   0.00000     -0.301140E-02
        56 DWVIPP   3        VAL      HG23     HA       0.900000E-01   1.00800           0   0.00000     -0.301140E-02
        57 DWVIPP   3        VAL      C        C        0.510000       12.0110           0   0.00000     -0.301140E-02
        58 DWVIPP   3        VAL      O        O       -0.510000       15.9990           0   0.00000     -0.301140E-02
        59 DWVIPP   4        ILE      N        NH1     -0.470000       14.0070           0   0.00000     -0.301140E-02
        60 DWVIPP   4        ILE      HN       H        0.310000       1.00800           0   0.00000     -0.301140E-02
        61 DWVIPP   4        ILE      CA       CT1      0.700000E-01   12.0110           0   0.00000     -0.301140E-02
        62 DWVIPP   4        ILE      HA       HB       0.900000E-01   1.00800           0   0.00000     -0.301140E-02
        63 DWVIPP   4        ILE      CB       CT1     -0.900000E-01   12.0110           0   0.00000     -0.301140E-02
        64 DWVIPP   4        ILE      HB       HA       0.900000E-01   1.00800           0   0.00000     -0.301140E-02
        65 DWVIPP   4        ILE      CG2      CT3     -0.270000       12.0110           0   0.00000     -0.301140E-02
        66 DWVIPP   4        ILE      HG21     HA       0.900000E-01   1.00800           0   0.00000     -0.301140E-02
        67 DWVIPP   4        ILE      HG22     HA       0.900000E-01   1.00800           0   0.00000     -0.301140E-02
        68 DWVIPP   4        ILE      HG23     HA       0.900000E-01   1.00800           0   0.00000     -0.301140E-02
        69 DWVIPP   4        ILE      CG1      CT2     -0.180000       12.0110           0   0.00000     -0.301140E-02
        70 DWVIPP   4        ILE      HG11     HA       0.900000E-01   1.00800           0   0.00000     -0.301140E-02
        71 DWVIPP   4        ILE      HG12     HA       0.900000E-01   1.00800           0   0.00000     -0.301140E-02
        72 DWVIPP   4        ILE      CD       CT3     -0.270000       12.0110           0   0.00000     -0.301140E-02
        73 DWVIPP   4        ILE      HD1      HA       0.900000E-01   1.00800           0   0.00000     -0.301140E-02
        74 DWVIPP   4        ILE      HD2      HA       0.900000E-01   1.00800           0   0.00000     -0.301140E-02
        75 DWVIPP   4        ILE      HD3      HA       0.900000E-01   1.00800           0   0.00000     -0.301140E-02
        76 DWVIPP   4        ILE      C        C        0.510000       12.0110           0   0.00000     -0.301140E-02
        77 DWVIPP   4        ILE      O        O       -0.510000       15.9990           0   0.00000     -0.301140E-02
        78 DWVIPP   5        PRO      N        N       -0.290000       14.0070           0   0.00000     -0.301140E-02
        79 DWVIPP   5        PRO      CD       CP3       0.00000       12.0110           0   0.00000     -0.301140E-02
        80 DWVIPP   5        PRO      HD1      HA       0.900000E-01   1.00800           0   0.00000     -0.301140E-02
        81 DWVIPP   5        PRO      HD2      HA       0.900000E-01   1.00800           0   0.00000     -0.301140E-02
        82 DWVIPP   5        PRO      CA       CP1      0.200000E-01   12.0110           0   0.00000     -0.301140E-02
        83 DWVIPP   5        PRO      HA       HB       0.900000E-01   1.00800           0   0.00000     -0.301140E-02
        84 DWVIPP   5        PRO      CB       CP2     -0.180000       12.0110           0   0.00000     -0.301140E-02
        85 DWVIPP   5        PRO      HB1      HA       0.900000E-01   1.00800           0   0.00000     -0.301140E-02
        86 DWVIPP   5        PRO      HB2      HA       0.900000E-01   1.00800           0   0.00000     -0.301140E-02
        87 DWVIPP   5        PRO      CG       CP2     -0.180000       12.0110           0   0.00000     -0.301140E-02
        88 DWVIPP   5        PRO      HG1      HA       0.900000E-01   1.00800           0   0.00000     -0.301140E-02
        89 DWVIPP   5        PRO      HG2      HA       0.900000E-01   1.00800           0   0.00000     -0.301140E-02
        90 DWVIPP   5        PRO      C        C        0.510000       12.0110           0   0.00000     -0.301140E-02
        91 DWVIPP   5        PRO      O        O       -0.510000       15.9990           0   0.00000     -0.301140E-02
        92 DWVIPP   6        PRO      N        N       -0.290000       14.0070           0   0.00000     -0.301140E-02
        93 DWVIPP   6        PRO      CD       CP3       0.00000       12.0110           0   0.00000     -0.301140E-02
        94 DWVIPP   6        PRO      HD1      HA       0.900000E-01   1.00800           0   0.00000     -0.301140E-02
        95 DWVIPP   6        PRO      HD2      HA       0.900000E-01   1.00800           0   0.00000     -0.301140E-02
        96 DWVIPP   6        PRO      CA       CP1      0.200000E-01   12.0110           0   0.00000     -0.301140E-02
        97 DWVIPP   6        PRO      HA       HB       0.900000E-01   1.00800           0   0.00000     -0.301140E-02
        98 DWVIPP   6        PRO      CB       CP2     -0.180000       12.0110           0   0.00000     -0.301140E-02
        99 DWVIPP   6        PRO      HB1      HA       0.900000E-01   1.00800           0   0.00000     -0.301140E-02
       100 DWVIPP   6        PRO      HB2      HA       0.900000E-01   1.00800           0   0.00000     -0.301140E-02
       101 DWVIPP   6        PRO      CG       CP2     -0.180000       12.0110           0   0.00000     -0.301140E-02
       102 DWVIPP   6        PRO      HG1      HA       0.900000E-01   1.00800           0   0.00000     -0.301140E-02
       103 DWVIPP   6        PRO      HG2      HA       0.900000E-01   1.00800           0   0.00000     -0.301140E-02
       104 DWVIPP   6        PRO      C        CC       0.550000       12.0110           0   0.00000     -0.301140E-02
       105 DWVIPP   6        PRO      O        O       -0.550000       15.9990           0   0.00000     -0.301140E-02
       106 DWVIPP   6        PRO      NT       NH2     -0.620000       14.0070           0   0.00000     -0.301140E-02
       107 DWVIPP   6        PRO      HT1      H        0.320000       1.00800           0   0.00000     -0.301140E-02
       108 DWVIPP   6        PRO      HT2      H        0.300000       1.00800           0   0.00000     -0.301140E-02

       111 !NBOND: bonds
         5         1         5         7         1         2         1         3
         1         4         6         5        11         9        14        11
        16        14         7         8         7         9        17         9
        17        19         9        10        11        12        11        13
        18        17        14        15        23        21        26        23
        32        26        29        27        37        31        19        20
        19        21        41        21        41        43        35        39
        32        33        29        31        21        22        23        24
        23        25        27        28        29        30        33        34
        37        38        35        36        39        40        42        41
        27        26        31        32        35        33        39        37
        47        45        49        47        53        47        43        44
        43        45        57        45        57        59        45        46
        47        48        49        50        49        51        49        52
        53        54        53        55        53        56        58        57
        63        61        69        63        65        63        72        69
        59        60        59        61        76        61        76        78
        61        62        63        64        69        70        69        71
        65        66        65        67        65        68        72        73
        72        74        72        75        77        76        90        82
        90        92        78        82        82        84        84        87
        87        79        78        79        83        82        88        87
        89        87        80        79        81        79        85        84
        86        84        91        90       104        96        92        96
        96        98        98       101       101        93        92        93
        97        96       102       101       103       101        94        93
        95        93        99        98       100        98       105       104
       104       106       106       107       106       108

       204 !NTHETA: angles
         2         1         3         2         1         4         2         1         5
         3         1         4         3         1         5         4         1         5
         1         5         6         1         5         7         6         5         7
         5         7         8         5         7         9         8         7         9
         7         9        10         7         9        11         7         9        17
        10         9        11        10         9        17        11         9        17
         9        11        12         9        11        13         9        11        14
        12        11        13        12        11        14        13        11        14
        11        14        15        11        14        16        15        14        16
         9        17        18         9        17        19        18        17        19
        17        19        20        17        19        21        20        19        21
        19        21        22        19        21        23        19        21        41
        22        21        23        22        21        41        23        21        41
        21        23        24        21        23        25        21        23        26
        24        23        25        24        23        26        25        23        26
        23        26        27        23        26        32        27        26        32
        26        27        28        26        27        29        28        27        29
        27        29        30        27        29        31        30        29        31
        29        31        32        29        31        37        32        31        37
        26        32        31        26        32        33        31        32        33
        32        33        34        32        33        35        34        33        35
        33        35        36        33        35        39        36        35        39
        31        37        38        31        37        39        38        37        39
        35        39        37        35        39        40        37        39        40
        21        41        42        21        41        43        42        41        43
        41        43        44        41        43        45        44        43        45
        43        45        46        43        45        47        43        45        57
        46        45        47        46        45        57        47        45        57
        45        47        48        45        47        49        45        47        53
        48        47        49        48        47        53        49        47        53
        47        49        50        47        49        51        47        49        52
        50        49        51        50        49        52        51        49        52
        47        53        54        47        53        55        47        53        56
        54        53        55        54        53        56        55        53        56
        45        57        58        45        57        59        58        57        59
        57        59        60        57        59        61        60        59        61
        59        61        62        59        61        63        59        61        76
        62        61        63        62        61        76        63        61        76
        61        63        64        61        63        65        61        63        69
        64        63        65        64        63        69        65        63        69
        63        65        66        63        65        67        63        65        68
        66        65        67        66        65        68        67        65        68
        63        69        70        63        69        71        63        69        72
        70        69        71        70        69        72        71        69        72
        69        72        73        69        72        74        69        72        75
        73        72        74        73        72        75        74        72        75
        61        76        77        61        76        78        77        76        78
        76        78        79        76        78        82        79        78        82
        78        79        80        78        79        81        78        79        87
        80        79        81        80        79        87        81        79        87
        78        82        83        78        82        84        78        82        90
        83        82        84        83        82        90        84        82        90
        82        84        85        82        84        86        82        84        87
        85        84        86        85        84        87        86        84        87
        79        87        84        79        87        88        79        87        89
        84        87        88        84        87        89        88        87        89
        82        90        91        82        90        92        91        90        92
        90        92        93        90        92        96        93        92        96
        92        93        94        92        93        95        92        93       101
        94        93        95        94        93       101        95        93       101
        92        96        97        92        96        98        92        96       104
        97        96        98        97        96       104        98        96       104
        96        98        99        96        98       100        96        98       101
        99        98       100        99        98       101       100        98       101
        93       101        98        93       101       102        93       101       103
        98       101       102        98       101       103       102       101       103
        96       104       105        96       104       106       105       104       106
       104       106       107       104       106       108       107       106       108

       305 !NPHI: dihedrals
         1         5         7         8         1         5         7         9
         2         1         5         6         2         1         5         7
         3         1         5         6         3         1         5         7
         4         1         5         6         4         1         5         7
         5         7         9        10         5         7         9        11
         5         7         9        17         6         5         7         8
         6         5         7         9         7         9        11        12
         7         9        11        13         7         9        11        14
         7         9        17        18         7         9        17        19
         8         7         9        10         8         7         9        11
         8         7         9        17         9        11        14        15
         9        11        14        16         9        17        19        20
         9        17        19        21        10         9        11        12
        10         9        11        13        10         9        11        14
        10         9        17        18        10         9        17        19
        11         9        17        18        11         9        17        19
        12        11         9        17        12        11        14        15
        12        11        14        16        13        11         9        17
        13        11        14        15        13        11        14        16
        14        11         9        17        17        19        21        22
        17        19        21        23        17        19        21        41
        18        17        19        20        18        17        19        21
        19        21        23        24        19        21        23        25
        19        21        23        26        19        21        41        42
        19        21        41        43        20        19        21        22
        20        19        21        23        20        19        21        41
        21        23        26        27        21        23        26        32
        21        41        43        44        21        41        43        45
        22        21        23        24        22        21        23        25
        22        21        23        26        22        21        41        42
        22        21        41        43        23        21        41        42
        23        21        41        43        23        26        27        28
        23        26        27        29        23        26        32        31
        23        26        32        33        24        23        21        41
        24        23        26        27        24        23        26        32
        25        23        21        41        25        23        26        27
        25        23        26        32        26        23        21        41
        26        27        29        30        26        27        29        31
        26        32        31        29        26        32        31        37
        26        32        33        34        26        32        33        35
        27        26        32        31        27        26        32        33
        27        29        31        32        27        29        31        37
        28        27        26        32        28        27        29        30
        28        27        29        31        29        27        26        32
        29        31        32        33        29        31        37        38
        29        31        37        39        30        29        31        32
        30        29        31        37        31        32        33        34
        31        32        33        35        31        37        39        35
        31        37        39        40        32        31        37        38
        32        31        37        39        32        33        35        36
        32        33        35        39        33        32        31        37
        33        35        39        37        33        35        39        40
        34        33        35        36        34        33        35        39
        35        39        37        38        36        35        39        37
        36        35        39        40        38        37        39        40
        41        43        45        46        41        43        45        47
        41        43        45        57        42        41        43        44
        42        41        43        45        43        45        47        48
        43        45        47        49        43        45        47        53
        43        45        57        58        43        45        57        59
        44        43        45        46        44        43        45        47
        44        43        45        57        45        47        49        50
        45        47        49        51        45        47        49        52
        45        47        53        54        45        47        53        55
        45        47        53        56        45        57        59        60
        45        57        59        61        46        45        47        48
        46        45        47        49        46        45        47        53
        46        45        57        58        46        45        57        59
        47        45        57        58        47        45        57        59
        48        47        45        57        48        47        49        50
        48        47        49        51        48        47        49        52
        48        47        53        54        48        47        53        55
        48        47        53        56        49        47        45        57
        49        47        53        54        49        47        53        55
        49        47        53        56        50        49        47        53
        51        49        47        53        52        49        47        53
        53        47        45        57        57        59        61        62
        57        59        61        63        57        59        61        76
        58        57        59        60        58        57        59        61
        59        61        63        64        59        61        63        65
        59        61        63        69        59        61        76        77
        59        61        76        78        60        59        61        62
        60        59        61        63        60        59        61        76
        61        63        65        66        61        63        65        67
        61        63        65        68        61        63        69        70
        61        63        69        71        61        63        69        72
        61        76        78        79        61        76        78        82
        62        61        63        64        62        61        63        65
        62        61        63        69        62        61        76        77
        62        61        76        78        63        61        76        77
        63        61        76        78        63        69        72        73
        63        69        72        74        63        69        72        75
        64        63        61        76        64        63        65        66
        64        63        65        67        64        63        65        68
        64        63        69        70        64        63        69        71
        64        63        69        72        65        63        61        76
        65        63        69        70        65        63        69        71
        65        63        69        72        66        65        63        69
        67        65        63        69        68        65        63        69
        69        63        61        76        70        69        72        73
        70        69        72        74        70        69        72        75
        71        69        72        73        71        69        72        74
        71        69        72        75        76        78        79        80
        76        78        79        81        76        78        79        87
        76        78        82        83        76        78        82        84
        76        78        82        90        77        76        78        79
        77        76        78        82        78        79        87        84
        78        79        87        88        78        79        87        89
        78        82        84        85        78        82        84        86
        78        82        84        87        78        82        90        91
        78        82        90        92        79        78        82        83
        79        78        82        84        79        78        82        90
        79        87        84        82        79        87        84        85
        79        87        84        86        80        79        78        82
        80        79        87        84        80        79        87        88
        80        79        87        89        81        79        78        82
        81        79        87        84        81        79        87        88
        81        79        87        89        82        78        79        87
        82        84        87        88        82        84        87        89
        82        90        92        93        82        90        92        96
        83        82        84        85        83        82        84        86
        83        82        84        87        83        82        90        91
        83        82        90        92        84        82        90        91
        84        82        90        92        85        84        82        90
        85        84        87        88        85        84        87        89
        86        84        82        90        86        84        87        88
        86        84        87        89        87        84        82        90
        90        92        93        94        90        92        93        95
        90        92        93       101        90        92        96        97
        90        92        96        98        90        92        96       104
        91        90        92        93        91        90        92        96
        92        93       101        98        92        93       101       102
        92        93       101       103        92        96        98        99
        92        96        98       100        92        96        98       101
        92        96       104       105        92        96       104       106
        93        92        96        97        93        92        96        98
        93        92        96       104        93       101        98        96
        93       101        98        99        93       101        98       100
        94        93        92        96        94        93       101        98
        94        93       101       102        94        93       101       103
        95        93        92        96        95        93       101        98
        95        93       101       102        95        93       101       103
        96        92        93       101        96        98       101       102
        96        98       101       103        96       104       106       107
        96       104       106       108        97        96        98        99
        97        96        98       100        97        96        98       101
        97        96       104       105        97        96       104       106
        98        96       104       105        98        96       104       106
        99        98        96       104        99        98       101       102
        99        98       101       103       100        98        96       104
       100        98       101       102       100        98       101       103
       101        98        96       104       105       104       106       107
       105       104       106       108

        17 !NIMPHI: impropers
         5         1         7         6         7         5         9         8
        17         9        19        18        14        11        16        15
        19        17        21        20        41        21        43        42
        43        41        45        44        57        45        59        58
        59        57        61        60        76        61        78        77
        78        76        82        79        90        82        92        91
        92        90        96        93       104       106        96       105
       104        96       106       105       106       104       107       108
       106       104       108       107

         7 !NDON: donors
         7         8        19        20        29        30        43        44
        59        60       106       107       106       108

         9 !NACC: acceptors
         6         5        15        14        16        14        18        17
        42        41        58        57        77        76        91        90
       105       104

         0 !NNB

         0         0         0         0         0         0         0         0
         0         0         0         0         0         0         0         0
         0         0         0         0         0         0         0         0
         0         0         0         0         0         0         0         0
         0         0         0         0         0         0         0         0
         0         0         0         0         0         0         0         0
         0         0         0         0         0         0         0         0
         0         0         0         0         0         0         0         0
         0         0         0         0         0         0         0         0
         0         0         0         0         0         0         0         0
         0         0         0         0         0         0         0         0
         0         0         0         0         0         0         0         0
         0         0         0         0         0         0         0         0
         0         0         0         0

        33         0 !NGRP NST2
         0         1         0         4         1         0         6         1         0
        10         2         0        16         1         0        18         1         0
        22         1         0        25         1         0        32         1         0
        34         1         0        36         1         0        38         1         0
        40         1         0        42         1         0        46         1         0
        48         1         0        52         1         0        56         1         0
        58         1         0        62         1         0        64         1         0
        68         1         0        71         1         0        75         1         0
        77         1         0        83         1         0        86         1         0
        89         1         0        91         1         0        97         1         0
       100         1         0       103         1         0       105         1         0

         1 !MOLNT
         1         1         1         1         1         1         1         1
         1         1         1         1         1         1         1         1
         1         1         1         1         1         1         1         1
         1         1         1         1         1         1         1         1
         1         1         1         1         1         1         1         1
         1         1         1         1         1         1         1         1
         1         1         1         1         1         1         1         1
         1         1         1         1         1         1         1         1
         1         1         1         1         1         1         1         1
         1         1         1         1         1         1         1         1
         1         1         1         1         1         1         1         1
         1         1         1         1         1         1         1         1
         1         1         1         1         1         1         1         1
         1         1         1         1

         0         0 !NUMLP NUMLPH

         5 !NCRTERM: cross-terms
         5         7         9        17         7         9        17        19
        17        19        21        41        19        21        41        43
        41        43        45        57        43        45        57        59
        57        59        61        76        59        61        76        78
        76        78        82        90        78        82        90        92
