* DWVIPP : WH5: WAAAH+ PEPTIDE  ENERGY MINIMIZED
*  DATE:     6/12/24     21:53:50      CREATED BY USER: jinyan
*
       108  EXT
         1         1  ASP       CAY            -1.8741254581        0.7601107190        0.7392963400  DWVIPP    1               0.0000000000
         2         1  ASP       HY1            -2.4032001726        1.2075106669        1.6090352537  DWVIPP    1               0.0000000000
         3         1  ASP       HY2            -2.2306583935       -0.2811504073        0.5910591024  DWVIPP    1               0.0000000000
         4         1  ASP       HY3            -2.1036657286        1.3618528828       -0.1663314493  DWVIPP    1               0.0000000000
         5         1  ASP       CY             -0.4154989690        0.7704810542        0.9951279514  DWVIPP    1               0.0000000000
         6         1  ASP       OY              0.0289201466        1.1550246301        2.0686012279  DWVIPP    1               0.0000000000
         7         1  ASP       N               0.3561149002        0.3310286465       -0.0087106440  DWVIPP    1               0.0000000000
         8         1  ASP       HN             -0.0566986271        0.0088139534       -0.8496089595  DWVIPP    1               0.0000000000
         9         1  ASP       CA              1.8041286455        0.3805250490       -0.0338975851  DWVIPP    1               0.0000000000
        10         1  ASP       HA              2.1472597134       -0.0992836955        0.8753739468  DWVIPP    1               0.0000000000
        11         1  ASP       CB              2.3145273140       -0.4197533195       -1.2629226012  DWVIPP    1               0.0000000000
        12         1  ASP       HB1             2.1553580130        0.1574903754       -2.1951556325  DWVIPP    1               0.0000000000
        13         1  ASP       HB2             1.7657646114       -1.3802484947       -1.3402140588  DWVIPP    1               0.0000000000
        14         1  ASP       CG              3.7919763916       -0.7742076229       -1.1649107440  DWVIPP    1               0.0000000000
        15         1  ASP       OD1             4.3404964292       -1.2229735500       -2.2002789005  DWVIPP    1               0.0000000000
        16         1  ASP       OD2             4.3751217329       -0.5993565935       -0.0639647868  DWVIPP    1               0.0000000000
        17         1  ASP       C               2.3480705876        1.8147724793       -0.0233826749  DWVIPP    1               0.0000000000
        18         1  ASP       O               1.7097948302        2.7513252804       -0.5108269267  DWVIPP    1               0.0000000000
        19         2  TRP       N               3.5440509234        2.0239285017        0.5530387398  DWVIPP    2               0.0000000000
        20         2  TRP       HN              4.0929694430        1.2162018346        0.8041972455  DWVIPP    2               0.0000000000
        21         2  TRP       CA              4.1571602796        3.3304872444        0.5864738648  DWVIPP    2               0.0000000000
        22         2  TRP       HA              3.8673088984        3.8634291141       -0.3092860846  DWVIPP    2               0.0000000000
        23         2  TRP       CB              3.6920914802        4.1425406938        1.8258007544  DWVIPP    2               0.0000000000
        24         2  TRP       HB1             4.0796479140        3.6605204112        2.7486237490  DWVIPP    2               0.0000000000
        25         2  TRP       HB2             2.5815645090        4.0904128187        1.8582122135  DWVIPP    2               0.0000000000
        26         2  TRP       CG              4.0764632817        5.6138665670        1.7950391633  DWVIPP    2               0.0000000000
        27         2  TRP       CD1             5.0822501848        6.2586865259        2.4609539121  DWVIPP    2               0.0000000000
        28         2  TRP       HD1             5.7587020349        5.7749624892        3.1523573041  DWVIPP    2               0.0000000000
        29         2  TRP       NE1             5.1117342806        7.5917769985        2.1048526391  DWVIPP    2               0.0000000000
        30         2  TRP       HE1             5.7469893894        8.2615377276        2.4125499081  DWVIPP    2               0.0000000000
        31         2  TRP       CE2             4.1109407964        7.8192568772        1.1846190086  DWVIPP    2               0.0000000000
        32         2  TRP       CD2             3.4403036644        6.5978338152        0.9619800172  DWVIPP    2               0.0000000000
        33         2  TRP       CE3             2.3755051440        6.5096948646        0.0653675390  DWVIPP    2               0.0000000000
        34         2  TRP       HE3             1.8566020831        5.5781835679       -0.1146337848  DWVIPP    2               0.0000000000
        35         2  TRP       CZ3             1.9896218191        7.6778127974       -0.6074814115  DWVIPP    2               0.0000000000
        36         2  TRP       HZ3             1.1667105697        7.6376266892       -1.3083329492  DWVIPP    2               0.0000000000
        37         2  TRP       CZ2             3.7272132354        8.9741529724        0.5171566121  DWVIPP    2               0.0000000000
        38         2  TRP       HZ2             4.2315042983        9.9117101312        0.6790872128  DWVIPP    2               0.0000000000
        39         2  TRP       CH2             2.6534675327        8.8941765430       -0.3847628540  DWVIPP    2               0.0000000000
        40         2  TRP       HH2             2.3362936589        9.7784948775       -0.9179984705  DWVIPP    2               0.0000000000
        41         2  TRP       C               5.6727068923        3.2312751403        0.5544879547  DWVIPP    2               0.0000000000
        42         2  TRP       O               6.3035994390        2.6076306447        1.4066057779  DWVIPP    2               0.0000000000
        43         3  VAL       N               6.3040846396        3.9069835135       -0.4253227829  DWVIPP    3               0.0000000000
        44         3  VAL       HN              5.7828295912        4.4379310700       -1.0865422140  DWVIPP    3               0.0000000000
        45         3  VAL       CA              7.7450022999        3.9536264490       -0.5814045146  DWVIPP    3               0.0000000000
        46         3  VAL       HA              8.2227103062        3.4741240432        0.2617880590  DWVIPP    3               0.0000000000
        47         3  VAL       CB              8.2278345721        3.2795126650       -1.8672859675  DWVIPP    3               0.0000000000
        48         3  VAL       HB              7.8002436684        3.8125001354       -2.7492684844  DWVIPP    3               0.0000000000
        49         3  VAL       CG1             9.7689791196        3.3037296183       -1.9557855149  DWVIPP    3               0.0000000000
        50         3  VAL       HG11           10.2130781170        2.7821502841       -1.0811053844  DWVIPP    3               0.0000000000
        51         3  VAL       HG12           10.1624488245        4.3399002362       -1.9974496732  DWVIPP    3               0.0000000000
        52         3  VAL       HG13           10.0986127191        2.7750151722       -2.8741192766  DWVIPP    3               0.0000000000
        53         3  VAL       CG2             7.7310264764        1.8190556866       -1.8954822552  DWVIPP    3               0.0000000000
        54         3  VAL       HG21            6.6212374222        1.7622825017       -1.9280787240  DWVIPP    3               0.0000000000
        55         3  VAL       HG22            8.0715493457        1.2705172028       -0.9904502210  DWVIPP    3               0.0000000000
        56         3  VAL       HG23            8.1214027728        1.2902503725       -2.7896308162  DWVIPP    3               0.0000000000
        57         3  VAL       C               8.1303286955        5.4222446436       -0.5664724579  DWVIPP    3               0.0000000000
        58         3  VAL       O               7.4916767457        6.2516638199       -1.2109767986  DWVIPP    3               0.0000000000
        59         4  ILE       N               9.1757500963        5.7936565201        0.1994461299  DWVIPP    4               0.0000000000
        60         4  ILE       HN              9.7321004176        5.1228708060        0.6832726886  DWVIPP    4               0.0000000000
        61         4  ILE       CA              9.5687782003        7.1760300411        0.4032782102  DWVIPP    4               0.0000000000
        62         4  ILE       HA              9.1169615965        7.7818611122       -0.3679897794  DWVIPP    4               0.0000000000
        63         4  ILE       CB              9.0902553794        7.6801883682        1.7758997956  DWVIPP    4               0.0000000000
        64         4  ILE       HB              8.0017190792        7.4321235960        1.8278803527  DWVIPP    4               0.0000000000
        65         4  ILE       CG2             9.7848450848        6.9286493548        2.9351197446  DWVIPP    4               0.0000000000
        66         4  ILE       HG21           10.8510833733        7.2269885976        3.0169228000  DWVIPP    4               0.0000000000
        67         4  ILE       HG22            9.7384036498        5.8301373818        2.7894494930  DWVIPP    4               0.0000000000
        68         4  ILE       HG23            9.2927035229        7.1598482301        3.9023522069  DWVIPP    4               0.0000000000
        69         4  ILE       CG1             9.2029553143        9.2158129882        1.9254060883  DWVIPP    4               0.0000000000
        70         4  ILE       HG11            8.7242978915        9.6939716442        1.0408969090  DWVIPP    4               0.0000000000
        71         4  ILE       HG12           10.2773890980        9.5083458622        1.9314653841  DWVIPP    4               0.0000000000
        72         4  ILE       CD              8.5250138315        9.7607938123        3.1887362045  DWVIPP    4               0.0000000000
        73         4  ILE       HD1             9.0858163583        9.4637159175        4.1006442995  DWVIPP    4               0.0000000000
        74         4  ILE       HD2             7.4903315100        9.3692007684        3.2730646526  DWVIPP    4               0.0000000000
        75         4  ILE       HD3             8.4852954548       10.8707197963        3.1592604636  DWVIPP    4               0.0000000000
        76         4  ILE       C              11.0841442673        7.2458539108        0.2342918976  DWVIPP    4               0.0000000000
        77         4  ILE       O              11.7543890568        6.2773582100        0.6069240339  DWVIPP    4               0.0000000000
        78         5  PRO       N              11.7271180097        8.2724108857       -0.3441963998  DWVIPP    5               0.0000000000
        79         5  PRO       CD             11.1048596378        9.3695681472       -1.0908650896  DWVIPP    5               0.0000000000
        80         5  PRO       HD1            10.1716361775        9.7312080180       -0.6161797667  DWVIPP    5               0.0000000000
        81         5  PRO       HD2            10.9004651545        9.0209592864       -2.1286998321  DWVIPP    5               0.0000000000
        82         5  PRO       CA             13.1834330237        8.3921081877       -0.3205195597  DWVIPP    5               0.0000000000
        83         5  PRO       HA             13.5937668157        7.4713737724       -0.7116592753  DWVIPP    5               0.0000000000
        84         5  PRO       CB             13.4628340899        9.6241228530       -1.2054336925  DWVIPP    5               0.0000000000
        85         5  PRO       HB1            13.5894186896        9.2892620334       -2.2600590582  DWVIPP    5               0.0000000000
        86         5  PRO       HB2            14.3632969564       10.1914885969       -0.8968400410  DWVIPP    5               0.0000000000
        87         5  PRO       CG             12.1809080308       10.4522250991       -1.0966672741  DWVIPP    5               0.0000000000
        88         5  PRO       HG1            12.1664473637       10.9856645546       -0.1178079371  DWVIPP    5               0.0000000000
        89         5  PRO       HG2            12.0675504605       11.1852872242       -1.9192691643  DWVIPP    5               0.0000000000
        90         5  PRO       C              13.7097812724        8.5777192991        1.1004648740  DWVIPP    5               0.0000000000
        91         5  PRO       O              12.9781108031        9.1282905804        1.9274414741  DWVIPP    5               0.0000000000
        92         6  PRO       N              14.9129234502        8.1276137707        1.4380202829  DWVIPP    6               0.0000000000
        93         6  PRO       CD             15.9249402071        7.6665401282        0.4810876866  DWVIPP    6               0.0000000000
        94         6  PRO       HD1            16.1929009762        8.4776375350       -0.2321304331  DWVIPP    6               0.0000000000
        95         6  PRO       HD2            15.5432585141        6.7738725375       -0.0626099144  DWVIPP    6               0.0000000000
        96         6  PRO       CA             15.3433490523        7.9724519672        2.8235341424  DWVIPP    6               0.0000000000
        97         6  PRO       HA             14.5339710721        7.6247673375        3.4502453304  DWVIPP    6               0.0000000000
        98         6  PRO       CB             16.4452650497        6.9099357003        2.6709574605  DWVIPP    6               0.0000000000
        99         6  PRO       HB1            15.9636392916        5.9111933075        2.5636463478  DWVIPP    6               0.0000000000
       100         6  PRO       HB2            17.1480580897        6.8799591421        3.5273754085  DWVIPP    6               0.0000000000
       101         6  PRO       CG             17.1207378366        7.2741705266        1.3454167628  DWVIPP    6               0.0000000000
       102         6  PRO       HG1            17.7858634996        8.1538448595        1.5021409738  DWVIPP    6               0.0000000000
       103         6  PRO       HG2            17.7086335958        6.4375661703        0.9167697907  DWVIPP    6               0.0000000000
       104         6  PRO       C              15.8876458540        9.2701312814        3.4202224820  DWVIPP    6               0.0000000000
       105         6  PRO       O              17.0121573908        9.3229304848        3.9200454035  DWVIPP    6               0.0000000000
       106         6  PRO       NT             15.0530928288       10.3360137328        3.3934307275  DWVIPP    6               0.0000000000
       107         6  PRO       HT1            15.3799810957       11.1886706617        3.7838091376  DWVIPP    6               0.0000000000
       108         6  PRO       HT2            14.1480867105       10.2193517255        2.9768410259  DWVIPP    6               0.0000000000
