Protein in water
 5914
    1ACE    CH3    1   2.062   1.479   1.975 -0.8470  0.3490 -0.2204
    1ACE   HH31    2   2.009   1.573   1.950  0.2428  1.2602  0.7683
    1ACE   HH32    3   2.144   1.513   2.042 -0.9792  3.9132 -1.6884
    1ACE   HH33    4   2.099   1.436   1.879  0.6324  2.4591 -0.6606
    1ACE      C    5   1.962   1.387   2.036  0.2601 -0.5222  0.3853
    1ACE      O    6   1.953   1.360   2.156  0.1122  0.2326  0.3945
    1ASP      N    7   1.882   1.329   1.946  0.0545 -0.9667 -0.5186
    1ASP     HN    8   1.888   1.365   1.854  0.5963  0.7623  0.1625
    1ASP     CA    9   1.765   1.251   1.976  0.1908 -0.6063  0.3926
    1ASP     HA   10   1.744   1.245   2.082 -0.3261 -3.3208  0.2103
    1ASP     CB   11   1.649   1.323   1.909  0.2965  0.9227 -0.1361
    1ASP    HB1   12   1.641   1.426   1.951  2.4267  0.6274  1.1207
    1ASP    HB2   13   1.663   1.331   1.799  0.1690 -0.4951 -0.2756
    1ASP     CG   14   1.515   1.254   1.936  0.0345  0.8306 -0.4407
    1ASP    OD1   15   1.489   1.211   2.045 -0.4474 -0.4978 -0.1407
    1ASP    OD2   16   1.427   1.261   1.841 -0.5863  0.2229 -0.7566
    1ASP      C   17   1.779   1.108   1.925 -0.7356  0.4257 -0.1842
    1ASP      O   18   1.768   1.078   1.806 -0.4002  0.7952 -0.1620
    2TRP      N   19   1.802   1.019   2.023 -0.6228  0.0182  0.3192
    2TRP     HN   20   1.796   1.061   2.113 -0.0432  0.5870  0.1019
    2TRP     CA   21   1.810   0.879   2.004 -0.4055  0.0119 -0.4974
    2TRP     HA   22   1.749   0.856   1.918 -0.7143  2.4484 -1.0054
    2TRP     CB   23   1.964   0.853   1.974  0.6866 -0.1106  0.7955
    2TRP    HB1   24   1.972   0.743   1.958 -2.4686 -0.1615 -1.4425
    2TRP    HB2   25   1.982   0.898   1.874  1.5280 -0.0263  0.9765
    2TRP     CG   26   2.070   0.897   2.076  0.4644  0.5915  0.1844
    2TRP    CD1   27   2.095   0.832   2.194 -0.0946 -0.0043  0.9529
    2TRP    HD1   28   2.039   0.745   2.225 -0.7118 -0.0246 -0.1793
    2TRP    NE1   29   2.184   0.908   2.268 -0.5922  0.3023 -0.0553
    2TRP    HE1   30   2.234   0.859   2.336  1.1122  2.1402  0.1218
    2TRP    CE2   31   2.222   1.014   2.194 -0.3399  0.3923 -0.5980
    2TRP    CD2   32   2.158   1.005   2.070  0.8657 -0.5412 -0.3736
    2TRP    CE3   33   2.182   1.107   1.973 -0.3352  0.3597  0.6770
    2TRP    HE3   34   2.120   1.090   1.886 -2.6452  1.1257  2.0833
    2TRP    CZ3   35   2.261   1.214   2.005  0.5881  0.1276  0.6799
    2TRP    HZ3   36   2.276   1.290   1.930 -1.9698 -1.2752 -1.4267
    2TRP    CZ2   37   2.300   1.118   2.227 -0.3955 -0.3038 -0.2696
    2TRP    HZ2   38   2.339   1.118   2.328 -2.5523  0.1331  0.6138
    2TRP    CH2   39   2.321   1.224   2.136 -0.0558 -0.0959 -0.4086
    2TRP    HH2   40   2.397   1.298   2.156 -1.6691  1.1565  1.4215
    2TRP      C   41   1.754   0.794   2.120 -0.4907 -0.1312  0.2321
    2TRP      O   42   1.725   0.834   2.232  0.0363 -0.6256 -0.0205
    3VAL      N   43   1.741   0.663   2.090  0.4763 -0.3875 -0.0903
    3VAL     HN   44   1.756   0.628   1.998  0.5410  2.5699 -1.3250
    3VAL     CA   45   1.704   0.557   2.184  0.5797  0.5752  0.5570
    3VAL     HA   46   1.629   0.601   2.248  0.2748  3.4159 -1.5784
    3VAL     CB   47   1.653   0.430   2.125  0.5307 -0.0773  0.0198
    3VAL     HB   48   1.651   0.353   2.205  0.1824 -0.0228  0.0628
    3VAL    CG1   49   1.510   0.460   2.078  0.2626  0.2267  0.3139
    3VAL   HG11   50   1.447   0.501   2.160  0.8405  0.7032  0.5254
    3VAL   HG12   51   1.502   0.530   1.993 -1.9577 -0.8456 -0.4478
    3VAL   HG13   52   1.452   0.372   2.042  0.3217 -0.1712  1.1599
    3VAL    CG2   53   1.734   0.380   2.001  0.0715  0.3099  0.0091
    3VAL   HG21   54   1.698   0.277   1.980 -0.7625  0.3246  1.2536
    3VAL   HG22   55   1.715   0.451   1.917  2.1588  2.1544  0.9943
    3VAL   HG23   56   1.841   0.376   2.031  0.2652 -0.3133 -0.7342
    3VAL      C   57   1.819   0.527   2.284 -0.5302  0.2210 -0.2418
    3VAL      O   58   1.933   0.512   2.239  0.0946  0.1258 -0.3387
    4ILE      N   59   1.785   0.517   2.416  0.3420  0.8196  0.0947
    4ILE     HN   60   1.687   0.528   2.430 -0.0190  1.5697 -2.4475
    4ILE     CA   61   1.869   0.471   2.528  0.0036 -0.4920 -0.7300
    4ILE     HA   62   1.974   0.487   2.507  0.6870  1.0292  3.0988
    4ILE     CB   63   1.856   0.569   2.653 -0.1370  0.8499  0.8132
    4ILE     HB   64   1.748   0.558   2.678 -0.2571  0.0119 -0.0003
    4ILE    CG2   65   1.952   0.526   2.762  0.2586 -0.6617  0.2966
    4ILE   HG21   66   1.901   0.573   2.849  0.6273  2.4561 -1.0320
    4ILE   HG22   67   1.965   0.418   2.786  1.6801 -0.3250  1.2169
    4ILE   HG23   68   2.051   0.576   2.767 -0.8692  1.7331  0.0747
    4ILE    CG1   69   1.877   0.721   2.612 -0.4528  0.5937  0.4189
    4ILE   HG11   70   1.804   0.733   2.530 -1.4713 -1.9332  0.8347
    4ILE   HG12   71   1.850   0.792   2.693  0.5490  3.4538 -1.6236
    4ILE     CD   72   2.021   0.755   2.554  0.1338  0.4613 -0.0645
    4ILE    HD1   73   2.014   0.856   2.508 -0.0966  0.3761 -0.2209
    4ILE    HD2   74   2.093   0.754   2.638 -1.0490  1.6400  1.0091
    4ILE    HD3   75   2.045   0.681   2.474 -0.1360 -0.6117  0.8232
    4ILE      C   76   1.839   0.329   2.561  0.0352  0.3314  0.8663
    4ILE      O   77   1.727   0.295   2.591 -0.2387 -0.5094 -0.0927
    5PRO      N   78   1.944   0.238   2.554  0.2094 -0.2387 -0.1465
    5PRO     CD   79   2.055   0.255   2.467 -0.0930 -0.5099  0.1848
    5PRO    HD1   80   2.142   0.302   2.516 -0.4948 -3.3738  4.1449
    5PRO    HD2   81   2.025   0.307   2.373  0.7443 -0.7043 -0.1957
    5PRO     CA   82   1.925   0.100   2.608 -0.7126 -0.5320 -0.2960
    5PRO     HA   83   1.840   0.049   2.565 -0.8371 -1.8886  1.4316
    5PRO     CB   84   2.057   0.034   2.559  0.0318  0.4290 -0.0605
    5PRO    HB1   85   2.129   0.046   2.643 -1.3109 -1.3191  1.3951
    5PRO    HB2   86   2.052  -0.074   2.534 -0.3023  0.5234 -0.4177
    5PRO     CG   87   2.095   0.112   2.435  0.8888 -0.4410  0.3701
    5PRO    HG1   88   2.203   0.096   2.417  0.5244 -1.8049 -0.7303
    5PRO    HG2   89   2.035   0.086   2.345  1.5660 -0.8329  0.0262
    5PRO      C   90   1.903   0.105   2.759 -0.2239 -0.3133 -0.4682
    5PRO      O   91   1.967   0.192   2.815  0.0815 -0.2241  0.1213
    6PRO      N   92   1.814   0.029   2.816 -0.1603  0.0845 -0.0040
    6PRO     CD   93   1.730  -0.082   2.754  0.7518 -0.1635 -0.2530
    6PRO    HD1   94   1.795  -0.155   2.701 -0.5522 -0.8249 -0.9935
    6PRO    HD2   95   1.655  -0.026   2.694  0.6546 -1.1777 -1.1026
    6PRO     CA   96   1.791   0.033   2.962 -0.9629  0.1451  0.2666
    6PRO     HA   97   1.784   0.135   2.997 -0.9735  1.0299 -2.0624
    6PRO     CB   98   1.667  -0.055   2.983  0.1119 -0.7737  0.5312
    6PRO    HB1   99   1.662  -0.104   3.083 -2.8094 -0.4469  0.6173
    6PRO    HB2  100   1.582   0.013   2.961  1.8133  1.4758  0.5644
    6PRO     CG  101   1.672  -0.156   2.872  0.2889  0.3225  0.0131
    6PRO    HG1  102   1.750  -0.235   2.884 -0.4882 -0.4338  0.2451
    6PRO    HG2  103   1.581  -0.216   2.851  1.1064 -0.8655 -0.2280
    6PRO      C  104   1.907  -0.022   3.037  0.2691  0.1203 -0.2832
    6PRO     NT  105   1.895  -0.011   3.172  0.9326  0.0096 -0.7703
    6PRO    HT1  106   1.812   0.029   3.210  2.0500  0.7134  1.0454
    6PRO    HT2  107   1.947  -0.070   3.234  0.9920  1.5169  0.6598
    6PRO      O  108   2.006  -0.075   2.981 -0.3413 -0.2762 -0.5711
    7SOL     OW  109   1.344   0.002   1.436 -0.2248  0.8708  0.1397
    7SOL    HW1  110   1.370  -0.089   1.451 -0.4099  0.8864  0.5765
    7SOL    HW2  111   1.265   0.013   1.488 -0.4744  1.1472 -0.2908
    8SOL     OW  112   2.889   3.559   1.309  0.1013 -0.6075  0.5141
    8SOL    HW1  113   2.945   3.564   1.232  0.3497 -0.0475  0.7276
    8SOL    HW2  114   2.830   3.634   1.301  1.0455  0.2817  1.5747
    9SOL     OW  115   3.212   2.035   1.480 -0.1525 -0.2928 -0.4722
    9SOL    HW1  116   3.153   2.011   1.408 -0.0958 -0.4464 -0.4680
    9SOL    HW2  117   3.299   2.012   1.448  0.0019  0.6763 -0.8024
   10SOL     OW  118   3.859   1.169   0.635  0.0304  0.1659 -0.5176
   10SOL    HW1  119   3.854   1.092   0.692  0.3925 -0.6878 -1.5939
   10SOL    HW2  120   3.928   1.148   0.572 -0.6816  0.8595 -1.5747
   11SOL     OW  121   2.320   1.764   0.375 -0.2218 -0.3884 -0.0422
   11SOL    HW1  122   2.292   1.672   0.372  1.4522 -0.9159 -2.0819
   11SOL    HW2  123   2.289   1.802   0.293  2.3604 -0.2712 -1.0857
   12SOL     OW  124   0.730   1.083   0.184 -0.2920 -0.1896  0.3498
   12SOL    HW1  125   0.824   1.101   0.177 -0.2427 -0.6055 -0.1239
   12SOL    HW2  126   0.724   0.988   0.190 -0.7864 -0.3297 -1.6925
   13SOL     OW  127   3.698   3.329   3.313  0.1106  0.5228  0.4105
   13SOL    HW1  128   3.635   3.348   3.383 -3.7747 -1.7332 -2.1033
   13SOL    HW2  129   3.679   3.395   3.246  1.3993  0.5604  0.0521
   14SOL     OW  130   2.888   2.846   1.618 -0.1154  0.2546  0.4533
   14SOL    HW1  131   2.866   2.790   1.693 -0.6478 -0.6038 -0.3139
   14SOL    HW2  132   2.827   2.920   1.626 -0.5924 -0.1365  0.5395
   15SOL     OW  133   0.667   1.359   1.746 -0.1014 -0.2915 -0.5158
   15SOL    HW1  134   0.588   1.369   1.693 -1.2033  0.7022  1.2105
   15SOL    HW2  135   0.640   1.305   1.820  1.0595 -0.5959 -0.2909
   16SOL     OW  136   3.153   1.713   0.026  0.2164  0.2194  0.1680
   16SOL    HW1  137   3.238   1.750   0.046  0.3162  0.2539 -0.2996
   16SOL    HW2  138   3.159   1.688  -0.067 -0.0288 -0.4552  0.3274
   17SOL     OW  139   2.331   3.448   3.271  0.2771  0.1158 -0.0606
   17SOL    HW1  140   2.407   3.492   3.233  1.2002  0.4875  2.1031
   17SOL    HW2  141   2.336   3.359   3.236 -0.1327  0.9406 -2.4102
   18SOL     OW  142   1.977   2.685   2.488  0.0597  0.3256 -0.2018
   18SOL    HW1  143   1.891   2.697   2.528  0.0189 -0.8111  0.0979
   18SOL    HW2  144   2.036   2.668   2.561  0.3028 -0.1230 -0.4962
   19SOL     OW  145   0.978   1.625   2.199  0.9930 -0.0459 -0.2585
   19SOL    HW1  146   1.073   1.620   2.196  0.9509 -0.6178 -0.8487
   19SOL    HW2  147   0.949   1.583   2.119  0.1596 -2.5277  1.2257
   20SOL     OW  148   3.482   3.323   1.370 -0.3367 -0.5460  0.5976
   20SOL    HW1  149   3.447   3.369   1.294  1.2912 -0.4980 -0.1521
   20SOL    HW2  150   3.463   3.230   1.353 -0.0393 -0.5279  0.1764
   21SOL     OW  151   2.113   2.729   1.371  0.3828 -0.2560 -0.7346
   21SOL    HW1  152   2.164   2.701   1.447 -0.7376  2.2235  1.1184
   21SOL    HW2  153   2.167   2.797   1.330  0.0101  0.0635 -0.7070
   22SOL     OW  154   3.145   2.132   1.944  0.2330 -0.0575 -0.4636
   22SOL    HW1  155   3.160   2.223   1.920 -1.1656  0.6081  0.9801
   22SOL    HW2  156   3.157   2.083   1.863  1.0226  1.3871 -1.2628
   23SOL     OW  157   3.136   1.807   3.334  0.3202 -0.2893 -0.0555
   23SOL    HW1  158   3.232   1.811   3.338  0.2929  0.5206  0.0387
   23SOL    HW2  159   3.107   1.862   3.406 -0.2126 -0.0778 -0.4251
   24SOL     OW  160   1.929   1.576   3.001  0.0666  0.2332  0.1447
   24SOL    HW1  161   1.992   1.579   3.073 -0.0608  0.2739  0.2553
   24SOL    HW2  162   1.978   1.539   2.928  0.1649  0.0810  0.2849
   25SOL     OW  163   3.536   1.397   2.155  0.4475 -0.0254  0.6208
   25SOL    HW1  164   3.546   1.489   2.180 -0.3933  0.4327 -0.6169
   25SOL    HW2  165   3.602   1.383   2.087  2.0391 -0.9785  2.2764
   26SOL     OW  166   3.826   2.652   1.528 -0.0101 -0.0852  0.3875
   26SOL    HW1  167   3.883   2.669   1.604  2.3056  0.0353 -1.2850
   26SOL    HW2  168   3.786   2.737   1.509 -1.6390 -0.3848  2.1899
   27SOL     OW  169   2.603   1.834   0.474 -0.2385 -0.8847  0.4038
   27SOL    HW1  170   2.508   1.843   0.470 -0.2748 -1.5249 -1.7793
   27SOL    HW2  171   2.622   1.758   0.419  1.7325  1.4754 -2.5239
   28SOL     OW  172   0.990   1.067   1.223 -0.1645 -0.6030 -0.1276
   28SOL    HW1  173   0.919   1.091   1.163 -1.0703 -1.4213  0.5854
   28SOL    HW2  174   1.025   1.150   1.253  0.7123 -0.1417 -2.2262
   29SOL     OW  175   2.826   2.764   3.111 -0.5809  0.1161 -0.0996
   29SOL    HW1  176   2.750   2.707   3.119 -0.3275 -0.0744  1.1315
   29SOL    HW2  177   2.855   2.753   3.020 -1.3021 -0.7264 -0.2387
   30SOL     OW  178   3.038   3.702   2.098 -0.7979  0.1661  0.7326
   30SOL    HW1  179   2.972   3.668   2.038  1.1382 -0.3982 -1.2153
   30SOL    HW2  180   3.087   3.624   2.126  0.0183  0.7260  0.8934
   31SOL     OW  181   0.047   1.431   1.023 -0.0362 -0.3444  0.0558
   31SOL    HW1  182   0.013   1.494   0.958 -1.9961 -2.4225 -1.1170
   31SOL    HW2  183   0.118   1.386   0.978 -1.4035 -1.7942 -0.7821
   32SOL     OW  184   2.994   0.503   3.402  0.1537  0.5855  0.9968
   32SOL    HW1  185   3.012   0.552   3.322 -1.5931 -0.7401 -0.2666
   32SOL    HW2  186   2.942   0.562   3.455 -3.0101 -0.1622 -1.0331
   33SOL     OW  187   1.063   0.325   0.878 -0.1624  0.8591 -0.2213
   33SOL    HW1  188   1.152   0.350   0.855 -0.1517  1.1201  0.0990
   33SOL    HW2  189   1.073   0.245   0.931 -0.1217  0.8502 -0.2430
   34SOL     OW  190   1.669   1.604   1.733  0.0138  0.2310 -0.5906
   34SOL    HW1  191   1.615   1.536   1.694  1.9464 -0.0486 -3.0107
   34SOL    HW2  192   1.758   1.585   1.703  0.7942  3.2083 -0.5259
   35SOL     OW  193   1.109   0.608   2.632  0.1567  0.4410  0.2657
   35SOL    HW1  194   1.041   0.650   2.580  0.5578 -0.3125 -0.9344
   35SOL    HW2  195   1.063   0.571   2.707 -0.6259  0.6040 -0.1218
   36SOL     OW  196   1.018   3.540   3.571  0.3331 -0.3004 -0.4926
   36SOL    HW1  197   0.988   3.491   3.648  1.4558  0.9961  0.8103
   36SOL    HW2  198   1.112   3.521   3.565  0.4771  0.5012 -0.8676
   37SOL     OW  199   0.373   2.732   3.137 -0.2236  0.2059 -0.4526
   37SOL    HW1  200   0.426   2.746   3.215  0.2587  1.0719 -0.9225
   37SOL    HW2  201   0.403   2.798   3.075 -0.0741 -0.9330 -1.6492
   38SOL     OW  202   0.797   1.806   0.640 -0.0252 -0.1433 -0.1277
   38SOL    HW1  203   0.811   1.877   0.703 -0.0434  0.2514 -0.5624
   38SOL    HW2  204   0.721   1.758   0.674  0.6416 -0.6146  0.7462
   39SOL     OW  205   0.200   0.732   1.193  0.5144  0.0208  0.4545
   39SOL    HW1  206   0.137   0.738   1.122 -0.7330  0.5480  1.5548
   39SOL    HW2  207   0.276   0.781   1.162 -0.3813  1.0874 -0.1334
   40SOL     OW  208   2.120   2.792   2.734 -0.3667  0.3187  0.1928
   40SOL    HW1  209   2.188   2.785   2.667 -0.4494  0.5505  0.0839
   40SOL    HW2  210   2.167   2.788   2.817 -0.2801 -0.1490  0.1246
   41SOL     OW  211   2.590   0.593   1.072  0.2706  0.2515 -0.2634
   41SOL    HW1  212   2.587   0.521   1.135  0.1206 -0.3017 -0.9077
   41SOL    HW2  213   2.652   0.655   1.112 -1.8105  1.1804  1.7639
   42SOL     OW  214   0.890   0.178   3.459 -0.3086 -0.0602 -0.3108
   42SOL    HW1  215   0.944   0.098   3.463  0.0516  0.1667 -0.5906
   42SOL    HW2  216   0.908   0.215   3.373  0.1937  0.7818  0.1451
   43SOL     OW  217   0.420   2.494   0.144 -0.2760  0.0968 -0.2403
   43SOL    HW1  218   0.486   2.467   0.208 -1.8030 -1.4598  0.7680
   43SOL    HW2  219   0.470   2.541   0.077  1.4913  1.0870  1.6562
   44SOL     OW  220   0.934   3.769   1.933 -0.6602 -0.1712  0.0394
   44SOL    HW1  221   0.941   3.731   2.021 -0.9266 -0.3004  0.0042
   44SOL    HW2  222   0.922   3.693   1.875  1.3166 -0.2744 -0.3326
   45SOL     OW  223   1.851   0.206   0.901 -0.3779 -0.0723  0.0073
   45SOL    HW1  224   1.811   0.201   0.988 -0.5469  0.5473 -0.0294
   45SOL    HW2  225   1.842   0.118   0.866 -0.1006 -0.3869  0.7100
   46SOL     OW  226   0.759   3.432   3.485  0.1607 -0.6789  0.0153
   46SOL    HW1  227   0.839   3.480   3.508 -0.3543 -0.2992  1.0839
   46SOL    HW2  228   0.700   3.500   3.453 -0.2176 -0.7414  0.5696
   47SOL     OW  229   1.521   0.889   3.196 -0.2803  0.0300  0.5641
   47SOL    HW1  230   1.447   0.865   3.141  0.2899 -1.0970  0.2610
   47SOL    HW2  231   1.597   0.885   3.137  0.3955 -1.5312  1.4636
   48SOL     OW  232   1.148   1.391   3.421 -0.2728 -0.3137 -0.4688
   48SOL    HW1  233   1.095   1.347   3.488  0.0598 -1.2242 -0.7908
   48SOL    HW2  234   1.092   1.392   3.343 -0.7208  0.8883 -0.1497
   49SOL     OW  235   3.176   1.308   1.519  0.1901  0.6181 -0.3298
   49SOL    HW1  236   3.170   1.230   1.574 -0.4862  2.1602  1.9053
   49SOL    HW2  237   3.152   1.381   1.576  0.6141  2.4885 -2.3648
   50SOL     OW  238   3.331   3.683   0.712 -0.4625 -0.5679 -0.1519
   50SOL    HW1  239   3.411   3.681   0.659 -0.4751 -2.5368 -0.1979
   50SOL    HW2  240   3.298   3.593   0.707 -0.8794 -0.6420  2.5901
   51SOL     OW  241   3.010   0.293   2.302 -0.6064 -0.0387  0.4080
   51SOL    HW1  242   2.969   0.229   2.243 -0.6738  0.4797 -0.1122
   51SOL    HW2  243   2.984   0.378   2.268 -2.2720  0.2993  2.3158
   52SOL     OW  244   0.570   3.662   3.433  0.1663  0.0892 -0.1669
   52SOL    HW1  245   0.479   3.648   3.459  0.2044 -0.4505 -0.3198
   52SOL    HW2  246   0.604   3.724   3.497  0.3754 -1.5027  1.3021
   53SOL     OW  247   1.536   0.112   2.149 -0.7472 -0.1774  0.0778
   53SOL    HW1  248   1.471   0.058   2.103 -0.5588 -0.6091  0.3186
   53SOL    HW2  249   1.490   0.195   2.166 -0.9999 -0.2206 -0.3894
   54SOL     OW  250   0.919   1.304   1.595 -0.1444 -0.3102  0.3041
   54SOL    HW1  251   0.839   1.309   1.649 -0.5572 -2.0766 -0.0560
   54SOL    HW2  252   0.927   1.210   1.575  1.9739 -0.1445  0.2353
   55SOL     OW  253   3.185   1.040   0.322  0.2566 -0.1582 -0.7243
   55SOL    HW1  254   3.271   1.004   0.345  0.7263  0.7969 -0.9409
   55SOL    HW2  255   3.175   1.116   0.379 -1.0733 -1.0524  0.2900
   56SOL     OW  256   0.909   2.159   0.996  0.4492  0.3486 -0.5228
   56SOL    HW1  257   0.950   2.149   1.082  0.1901 -1.1716 -0.5615
   56SOL    HW2  258   0.962   2.226   0.952  0.6495  1.0579  0.7653
   57SOL     OW  259   2.840   1.228   0.797  0.2764 -0.7028 -0.1370
   57SOL    HW1  260   2.851   1.155   0.858 -0.0308 -1.7751 -1.3201
   57SOL    HW2  261   2.906   1.292   0.823  0.8502 -1.6024  0.6547
   58SOL     OW  262   1.938   0.126   3.589  0.3528 -0.0480  0.2793
   58SOL    HW1  263   1.955   0.192   3.521 -0.4741 -1.5490 -1.4735
   58SOL    HW2  264   1.851   0.147   3.621  0.6589  0.5361  0.7586
   59SOL     OW  265   0.723   2.316   0.837 -0.6488  0.2281 -0.3760
   59SOL    HW1  266   0.786   2.268   0.892  0.5195  0.4514 -1.4792
   59SOL    HW2  267   0.760   2.312   0.749 -2.5354 -0.1813 -1.1858
   60SOL     OW  268   3.807   2.216   2.968 -0.6738  0.1565 -0.0319
   60SOL    HW1  269   3.807   2.159   3.044  1.6299 -0.5701 -0.4978
   60SOL    HW2  270   3.749   2.288   2.992 -3.0764 -1.9107  0.8665
   61SOL     OW  271   3.721   1.269   2.008 -0.3527 -0.1532  0.7076
   61SOL    HW1  272   3.660   1.212   1.961  0.7158  0.6324 -1.8281
   61SOL    HW2  273   3.781   1.208   2.052 -1.3388 -0.9382  1.0016
   62SOL     OW  274   3.218   1.371   0.739  0.3676  0.7714  0.1543
   62SOL    HW1  275   3.139   1.406   0.780 -0.6402 -1.0025 -0.1983
   62SOL    HW2  276   3.271   1.339   0.811 -0.5763 -0.6833  0.2212
   63SOL     OW  277   2.327   1.899   3.487  0.2469  0.2090  0.2528
   63SOL    HW1  278   2.329   1.834   3.558 -0.3911  0.8885  0.9087
   63SOL    HW2  279   2.248   1.876   3.437  0.8399 -0.4341 -0.4151
   64SOL     OW  280   2.468   1.953   1.240  0.3398 -0.2148  0.3893
   64SOL    HW1  281   2.439   2.043   1.225  1.3200 -0.0246 -0.4761
   64SOL    HW2  282   2.452   1.909   1.157  1.8619 -0.2752  0.1055
   65SOL     OW  283   1.203   0.568   1.486  0.6798 -0.0142 -0.0629
   65SOL    HW1  284   1.115   0.596   1.461  1.0733  1.8894  0.5287
   65SOL    HW2  285   1.200   0.472   1.481 -1.2541  0.0311 -0.5758
   66SOL     OW  286   3.671   2.302   1.411 -0.0380 -0.0724 -0.0165
   66SOL    HW1  287   3.658   2.227   1.354 -1.4907 -0.1529  0.3743
   66SOL    HW2  288   3.763   2.326   1.399  0.1152 -1.1106 -1.1047
   67SOL     OW  289   1.287   1.490   0.912 -0.0216 -0.2352  0.1379
   67SOL    HW1  290   1.213   1.512   0.969 -0.1879  0.1797 -0.2353
   67SOL    HW2  291   1.283   1.554   0.841  0.2829 -0.6463 -0.2561
   68SOL     OW  292   3.231   0.869   2.906  0.1523  0.0871 -0.2282
   68SOL    HW1  293   3.286   0.940   2.872 -0.6909  1.2849  0.8431
   68SOL    HW2  294   3.283   0.829   2.975  0.8234 -0.6902 -1.1482
   69SOL     OW  295   3.828   3.529   1.358 -0.0287  0.0447 -0.0181
   69SOL    HW1  296   3.874   3.513   1.276  0.3524  0.6445  0.0713
   69SOL    HW2  297   3.784   3.446   1.377 -2.9054  0.8295 -2.5416
   70SOL     OW  298   0.601   2.123   1.731  0.2705  0.2553 -0.4158
   70SOL    HW1  299   0.617   2.172   1.651  1.8095  0.0086 -0.2932
   70SOL    HW2  300   0.622   2.033   1.709 -1.1619 -0.1467 -0.2436
   71SOL     OW  301   0.667   3.349   1.921  0.9131  0.7804  0.3329
   71SOL    HW1  302   0.719   3.279   1.884  0.9201  1.8750 -1.8834
   71SOL    HW2  303   0.597   3.305   1.968  0.2750 -0.7754 -1.9206
   72SOL     OW  304   3.041   3.141   0.181 -0.3962  0.1545  0.1753
   72SOL    HW1  305   3.073   3.085   0.111 -0.5314  0.4974 -0.1631
   72SOL    HW2  306   3.119   3.162   0.233  0.2865  2.3339 -1.5811
   73SOL     OW  307   1.773   0.893   0.274  0.2524 -0.0454 -0.4212
   73SOL    HW1  308   1.687   0.852   0.261 -0.1884  1.2746 -1.9517
   73SOL    HW2  309   1.835   0.826   0.243 -0.4176  0.1170 -2.2637
   74SOL     OW  310   1.405   3.542   0.832 -0.4973 -0.3782  0.1719
   74SOL    HW1  311   1.383   3.595   0.909 -0.7304  0.1107 -0.2230
   74SOL    HW2  312   1.482   3.585   0.795  0.8426 -1.7823  1.2541
   75SOL     OW  313   2.003   0.291   0.603  0.7087  0.6239  0.0225
   75SOL    HW1  314   2.024   0.308   0.695  1.8216  1.8331 -0.4325
   75SOL    HW2  315   2.006   0.196   0.595 -0.2423  0.4461  1.4223
   76SOL     OW  316   1.657   1.621   0.694  0.0570 -0.5200 -0.4902
   76SOL    HW1  317   1.641   1.584   0.780  1.5083  1.8614  0.9044
   76SOL    HW2  318   1.747   1.653   0.698 -0.0201  0.1562 -2.7142
   77SOL     OW  319   3.217   1.196   2.651  0.0100 -0.0670  0.0835
   77SOL    HW1  320   3.284   1.191   2.719  0.8515  1.1001 -0.6273
   77SOL    HW2  321   3.216   1.108   2.612  0.3102 -0.4193  0.8404
   78SOL     OW  322   1.340   3.444   1.167 -0.0604  0.3378  0.0942
   78SOL    HW1  323   1.385   3.367   1.202 -0.3258  0.2633  0.2778
   78SOL    HW2  324   1.268   3.407   1.115 -0.7878  0.4614  0.9770
   79SOL     OW  325   1.579   3.874   2.390  0.2165 -0.6864  0.3771
   79SOL    HW1  326   1.615   3.796   2.349 -1.6584 -0.6557 -1.4718
   79SOL    HW2  327   1.575   3.939   2.320 -1.3052 -0.0022  1.0441
   80SOL     OW  328   3.853   0.891   0.450 -0.3066  0.1303 -0.5866
   80SOL    HW1  329   3.899   0.812   0.478 -1.3610 -1.3017 -2.6879
   80SOL    HW2  330   3.897   0.962   0.498  1.4250 -1.5723  0.4913
   81SOL     OW  331   3.007   1.727   1.638  0.0615  0.0679 -0.2936
   81SOL    HW1  332   2.931   1.770   1.676 -1.1245 -1.1783 -1.1598
   81SOL    HW2  333   3.027   1.777   1.560  0.5195  0.7473  0.2480
   82SOL     OW  334   3.732   1.186   3.143 -0.0052 -0.5472 -0.1601
   82SOL    HW1  335   3.815   1.202   3.098 -0.7043  1.4763 -0.8615
   82SOL    HW2  336   3.724   1.259   3.205 -0.7525 -1.3007  0.6492
   83SOL     OW  337   3.017   3.292   2.027 -0.1208 -0.3863 -0.3802
   83SOL    HW1  338   3.086   3.228   2.006  1.7602  1.0702  1.0506
   83SOL    HW2  339   3.053   3.344   2.098 -2.3733  1.0595 -0.2021
   84SOL     OW  340   2.521   0.926   2.704  0.5729 -0.3244  0.0545
   84SOL    HW1  341   2.552   0.980   2.631  0.0706  1.0287  0.7983
   84SOL    HW2  342   2.574   0.847   2.699  0.9415 -0.0301 -1.4330
   85SOL     OW  343   0.932   0.636   1.459  0.7239  0.1523  0.2081
   85SOL    HW1  344   0.931   0.731   1.450 -0.8590  0.1850  0.5531
   85SOL    HW2  345   0.910   0.603   1.372  1.2402  0.0876  0.0968
   86SOL     OW  346   2.308   2.862   1.519 -0.0490 -0.3727 -0.1593
   86SOL    HW1  347   2.285   2.918   1.594  1.0169  0.7517 -0.6440
   86SOL    HW2  348   2.343   2.922   1.454  2.3442 -1.6936 -0.2274
   87SOL     OW  349   1.648   0.517   3.134 -0.1429 -0.0798 -0.2647
   87SOL    HW1  350   1.726   0.511   3.079 -0.2357 -1.0957 -0.2925
   87SOL    HW2  351   1.577   0.487   3.078 -0.4265  0.0291  0.0343
   88SOL     OW  352   1.964   2.215   2.734  0.2051  0.3899  0.3215
   88SOL    HW1  353   1.974   2.207   2.829 -0.7181 -0.7139  0.3472
   88SOL    HW2  354   1.882   2.263   2.722 -0.5909 -0.9624  0.1042
   89SOL     OW  355   0.404   0.207   1.187 -0.2725  0.0173  0.5831
   89SOL    HW1  356   0.379   0.117   1.206  0.6120  0.1201  2.5412
   89SOL    HW2  357   0.321   0.256   1.187 -0.6277 -0.5764  0.8961
   90SOL     OW  358   0.205   0.219   1.761  0.1626 -0.2366  0.2363
   90SOL    HW1  359   0.162   0.288   1.711  1.6068  0.4979 -0.0700
   90SOL    HW2  360   0.275   0.188   1.704  0.4162 -0.9817  0.9268
   91SOL     OW  361   1.103   1.077   3.319 -0.1828 -0.4871 -0.1747
   91SOL    HW1  362   1.066   1.033   3.242 -0.1693  0.5033 -0.7673
   91SOL    HW2  363   1.065   1.165   3.316  2.0654  0.5202 -0.7177
   92SOL     OW  364   1.833   2.278   1.026  0.1987  0.0929  0.2266
   92SOL    HW1  365   1.801   2.258   0.938  1.2636 -2.1235  0.2662
   92SOL    HW2  366   1.874   2.364   1.018  3.5141 -1.5079 -2.4486
   93SOL     OW  367   1.057   2.520   0.517  0.1427 -0.2308 -0.2555
   93SOL    HW1  368   0.973   2.482   0.493 -0.4445  0.7950  0.1211
   93SOL    HW2  369   1.035   2.602   0.561  1.1934 -1.3504  2.6544
   94SOL     OW  370   0.354   0.521   2.086  0.3163  0.2221 -0.6904
   94SOL    HW1  371   0.375   0.440   2.041  0.2536 -0.4572  0.4526
   94SOL    HW2  372   0.259   0.523   2.091  0.3359 -0.1073  0.0649
   95SOL     OW  373   2.844   1.962   1.103 -0.4382  0.5251 -0.1800
   95SOL    HW1  374   2.807   1.895   1.161  0.2228 -0.0528 -0.4112
   95SOL    HW2  375   2.775   1.980   1.039 -0.2372 -0.7676 -0.7981
   96SOL     OW  376   2.017   1.445   0.521 -0.2598 -0.2005  0.1901
   96SOL    HW1  377   2.029   1.486   0.436  0.9527 -2.7895 -1.0065
   96SOL    HW2  378   2.076   1.492   0.580 -0.1420  0.7793 -0.7011
   97SOL     OW  379   3.509   3.305   3.536  0.2626  0.3310 -0.5009
   97SOL    HW1  380   3.415   3.320   3.533  0.0633 -0.7665  0.0863
   97SOL    HW2  381   3.520   3.229   3.593  1.5305  0.6708 -0.2568
   98SOL     OW  382   2.517   3.276   1.320  0.2352 -0.1783 -0.7421
   98SOL    HW1  383   2.458   3.232   1.260 -0.4305  0.6879 -0.7463
   98SOL    HW2  384   2.461   3.302   1.394  1.0722 -1.3986  0.3663
   99SOL     OW  385   3.621   2.810   0.996  1.0877 -0.3722 -0.4995
   99SOL    HW1  386   3.546   2.835   1.050  1.9000 -2.1985  1.6664
   99SOL    HW2  387   3.605   2.718   0.974  2.2377 -0.5056 -0.8275
  100SOL     OW  388   0.832   3.884   2.380  0.2303  0.0975  0.6809
  100SOL    HW1  389   0.905   3.927   2.334  0.4810  0.5381  1.4788
  100SOL    HW2  390   0.779   3.846   2.310  1.5081 -0.6983  0.0934
  101SOL     OW  391   0.196   3.458   1.520  0.0355 -0.6540  0.2792
  101SOL    HW1  392   0.214   3.550   1.502 -2.0071 -0.5317 -1.6062
  101SOL    HW2  393   0.280   3.414   1.506  1.1111  0.9063  1.4955
  102SOL     OW  394   2.624   0.080   2.635 -0.4831  0.0290  0.8333
  102SOL    HW1  395   2.614   0.174   2.617  1.4249  0.2391  0.5986
  102SOL    HW2  396   2.631   0.039   2.549  1.5206  0.0893  0.9180
  103SOL     OW  397   3.751   0.414   2.927 -0.1940  0.3516 -0.1327
  103SOL    HW1  398   3.742   0.489   2.986  0.1971  0.4280 -0.1701
  103SOL    HW2  399   3.845   0.397   2.924 -0.1850  0.5103 -0.9357
  104SOL     OW  400   3.414   0.592   2.003 -0.5063 -0.5809  0.4556
  104SOL    HW1  401   3.345   0.606   2.068  1.5166  3.0434  2.1516
  104SOL    HW2  402   3.429   0.678   1.965  1.5923 -1.6898 -1.4572
  105SOL     OW  403   2.396   2.539   2.901  0.0666  0.5330  0.3559
  105SOL    HW1  404   2.407   2.527   2.807 -0.2131 -0.3089  0.4266
  105SOL    HW2  405   2.377   2.633   2.911  1.3898  0.9003 -0.2960
  106SOL     OW  406   1.642   0.770   1.204  0.3294 -0.2720 -0.2369
  106SOL    HW1  407   1.671   0.693   1.156 -2.0273 -0.4711 -1.5067
  106SOL    HW2  408   1.569   0.737   1.258  0.0454  0.8342  0.0716
  107SOL     OW  409   2.906   1.653   2.017  0.8509  0.2807  0.5230
  107SOL    HW1  410   2.853   1.634   1.939  1.8236  0.9849 -0.3351
  107SOL    HW2  411   2.922   1.567   2.056  1.5614 -0.2543 -0.8715
  108SOL     OW  412   0.388   2.001   0.640  0.6611 -0.3917  0.3428
  108SOL    HW1  413   0.376   2.080   0.588  0.7610 -0.5419  0.0862
  108SOL    HW2  414   0.443   2.028   0.714 -0.5297  0.1094  1.0689
  109SOL     OW  415   0.774   2.533   0.549  0.5444  0.2450 -0.3141
  109SOL    HW1  416   0.789   2.590   0.625 -0.2936 -0.8483  0.7026
  109SOL    HW2  417   0.716   2.585   0.493 -0.8735  0.1364  0.9731
  110SOL     OW  418   2.190   2.497   2.586 -0.1249  0.2337 -0.2738
  110SOL    HW1  419   2.201   2.444   2.507  2.5043  1.0722 -0.5538
  110SOL    HW2  420   2.273   2.545   2.595 -0.6166  0.7199  2.5938
  111SOL     OW  421   0.802   0.061   3.089 -0.0050  0.3092  0.2180
  111SOL    HW1  422   0.801  -0.021   3.138 -0.1613  0.4022  0.3723
  111SOL    HW2  423   0.710   0.081   3.074  0.0610 -0.2471 -1.0142
  112SOL     OW  424   0.363   1.116   3.319  0.7054  0.0925 -0.1527
  112SOL    HW1  425   0.363   1.078   3.407 -0.2760  0.1084 -0.1362
  112SOL    HW2  426   0.358   1.210   3.334 -0.2491  0.0573 -0.2309
  113SOL     OW  427   1.997   0.290   3.870 -0.0162 -1.2016  0.6306
  113SOL    HW1  428   2.060   0.218   3.876  1.5261  0.1003  0.6237
  113SOL    HW2  429   1.934   0.261   3.804  0.5805 -2.5239  0.6041
  114SOL     OW  430   3.061   3.820   0.384  0.1403  0.0074 -0.4271
  114SOL    HW1  431   2.975   3.792   0.351 -0.0590  0.3824 -0.2380
  114SOL    HW2  432   3.123   3.759   0.344 -0.2606 -0.5513 -0.2043
  115SOL     OW  433   2.843   1.992   3.749  0.1529  0.0197 -0.2031
  115SOL    HW1  434   2.769   1.947   3.708  2.2899 -2.6118 -1.4703
  115SOL    HW2  435   2.866   1.937   3.823  0.3273  1.3308  0.7609
  116SOL     OW  436   1.940   2.523   1.273 -0.4892  0.0434 -0.1636
  116SOL    HW1  437   1.995   2.594   1.306 -0.4817 -0.5001  1.0570
  116SOL    HW2  438   1.859   2.530   1.323 -0.0634 -1.4592  0.8024
  117SOL     OW  439   0.400   0.525   1.423  0.3722  0.2759  0.0773
  117SOL    HW1  440   0.344   0.599   1.446  1.0487  0.3652  1.5192
  117SOL    HW2  441   0.479   0.537   1.475  0.5027 -1.4363  0.3510
  118SOL     OW  442   1.529   2.347   0.672 -0.6929  0.1714 -0.0269
  118SOL    HW1  443   1.522   2.440   0.695  1.0225 -0.1292  2.0759
  118SOL    HW2  444   1.494   2.342   0.583 -0.8728  2.8130 -0.2084
  119SOL     OW  445   0.919   2.964   2.937 -0.1716  0.4592 -0.0345
  119SOL    HW1  446   0.981   3.024   2.980  0.3602  0.4928 -0.8291
  119SOL    HW2  447   0.950   2.877   2.962 -1.2037  0.4851  1.4829
  120SOL     OW  448   3.568   1.514   0.851  0.3994  0.3088 -0.5525
  120SOL    HW1  449   3.659   1.538   0.831  0.7502  0.5916  1.1724
  120SOL    HW2  450   3.523   1.516   0.767  1.8273  0.9215 -1.3353
  121SOL     OW  451   1.508   0.229   3.677  0.9986  0.5612 -0.6186
  121SOL    HW1  452   1.461   0.311   3.662 -3.5328 -1.3789  1.2403
  121SOL    HW2  453   1.472   0.169   3.612  0.5040 -1.1747  1.1926
  122SOL     OW  454   1.259   3.315   0.109  0.1120  0.1701 -0.0939
  122SOL    HW1  455   1.212   3.343   0.030 -0.7831  1.8161  0.9586
  122SOL    HW2  456   1.236   3.223   0.118  1.5436 -0.5279 -2.5999
  123SOL     OW  457   2.347   1.864   2.266 -0.0016 -0.1028  0.2999
  123SOL    HW1  458   2.322   1.775   2.244  3.2024 -0.6875 -1.6375
  123SOL    HW2  459   2.407   1.854   2.340  0.6777  0.3720 -0.1766
  124SOL     OW  460   2.633   3.695   2.766  0.4735 -0.1575  0.0435
  124SOL    HW1  461   2.675   3.732   2.688 -0.5226 -0.4162 -0.6369
  124SOL    HW2  462   2.540   3.692   2.744  0.1871 -0.3251  1.2144
  125SOL     OW  463   3.348   2.974   2.241  0.0208  0.2328  0.2542
  125SOL    HW1  464   3.384   2.887   2.258 -0.2414 -0.3137 -1.7656
  125SOL    HW2  465   3.345   3.016   2.327  0.8999 -1.4570  1.1521
  126SOL     OW  466   0.484   2.519   0.496 -0.0615 -0.1502  0.3904
  126SOL    HW1  467   0.510   2.570   0.419  2.8182 -1.0350  0.6648
  126SOL    HW2  468   0.417   2.573   0.538 -0.8712  0.9107 -2.0595
  127SOL     OW  469   3.521   0.247   2.981  0.2310 -0.1287 -0.6660
  127SOL    HW1  470   3.560   0.173   2.935  0.4671  0.7307 -1.8983
  127SOL    HW2  471   3.590   0.312   2.985  1.7788 -1.5995  4.8402
  128SOL     OW  472   1.841   1.293   3.313 -0.7857 -0.3948  0.9006
  128SOL    HW1  473   1.881   1.277   3.398 -2.2052  0.1502  1.6973
  128SOL    HW2  474   1.759   1.243   3.315 -2.2283  1.8248  1.0071
  129SOL     OW  475   1.163   2.100   3.446 -0.1268 -0.1258 -0.0547
  129SOL    HW1  476   1.252   2.080   3.475 -0.4336  0.2524  1.1987
  129SOL    HW2  477   1.107   2.071   3.517 -0.8815  1.1818 -0.0742
  130SOL     OW  478   3.044   3.534   0.523 -0.2350  0.2858  0.0059
  130SOL    HW1  479   3.092   3.604   0.478  0.3673  0.2839  0.6147
  130SOL    HW2  480   3.100   3.512   0.598  0.2179 -1.7217 -0.8655
  131SOL     OW  481   0.096   2.644   2.941  0.0868 -0.2419 -0.2375
  131SOL    HW1  482   0.177   2.610   2.902 -0.0595 -0.8203 -0.0476
  131SOL    HW2  483   0.082   2.590   3.019 -1.2015 -1.0607 -1.0028
  132SOL     OW  484   1.761   2.859   3.790  0.3342 -0.4397 -0.0882
  132SOL    HW1  485   1.833   2.922   3.803 -0.4584  0.9369 -1.9513
  132SOL    HW2  486   1.719   2.854   3.876  0.4463  1.6032  0.1431
  133SOL     OW  487   2.624   0.635   0.806  0.2048 -0.3305  0.4995
  133SOL    HW1  488   2.558   0.699   0.780  2.4616  2.0905  0.2510
  133SOL    HW2  489   2.603   0.614   0.897 -1.6767 -0.7318  0.0075
  134SOL     OW  490   3.376   0.373   3.225 -0.4628  0.0421 -0.5173
  134SOL    HW1  491   3.399   0.364   3.133  0.9834  0.4622 -0.2096
  134SOL    HW2  492   3.351   0.464   3.235 -0.8886 -0.0682 -0.5396
  135SOL     OW  493   2.914   0.029   2.255  0.2104  0.5342  1.0562
  135SOL    HW1  494   2.951  -0.024   2.183  1.8852  0.4961  1.8969
  135SOL    HW2  495   2.966   0.005   2.331  0.5158  2.8344  1.6448
  136SOL     OW  496   1.183   0.947   0.858 -0.0835  0.1128  0.0884
  136SOL    HW1  497   1.208   0.978   0.770  1.9660 -0.9780  0.2092
  136SOL    HW2  498   1.157   1.027   0.904 -1.6954  0.6538 -1.6151
  137SOL     OW  499   0.222   3.115   0.257 -0.2591 -0.7698 -0.5009
  137SOL    HW1  500   0.256   3.171   0.187 -1.4711 -1.9431 -2.0750
  137SOL    HW2  501   0.135   3.150   0.276  0.9073  1.0175  2.1719
  138SOL     OW  502   0.871   2.349   0.337 -0.1740 -0.4788 -0.0384
  138SOL    HW1  503   0.803   2.329   0.273  0.0472  0.3403 -0.5527
  138SOL    HW2  504   0.834   2.421   0.389  0.1912 -0.1925 -0.1669
  139SOL     OW  505   1.699   3.591   0.806 -0.8416  0.4568 -0.0988
  139SOL    HW1  506   1.769   3.641   0.848  0.2468 -2.0163  1.2343
  139SOL    HW2  507   1.701   3.618   0.715  2.5921 -0.2496 -0.3505
  140SOL     OW  508   1.500   2.684   3.314 -0.3890 -0.1335  0.3482
  140SOL    HW1  509   1.497   2.778   3.333 -2.5523  0.1674 -1.1079
  140SOL    HW2  510   1.584   2.671   3.271  0.7122  0.7599  2.1083
  141SOL     OW  511   0.254   1.533   3.181 -0.0141 -0.0426 -0.2570
  141SOL    HW1  512   0.312   1.461   3.155  2.0398 -0.2952  4.1545
  141SOL    HW2  513   0.267   1.600   3.113  2.0590 -1.7890 -1.7338
  142SOL     OW  514   2.275   2.032   0.742 -0.2532 -0.0597 -0.4807
  142SOL    HW1  515   2.370   2.040   0.731  0.1941 -0.3165  2.2583
  142SOL    HW2  516   2.251   2.106   0.798 -1.6551 -0.1062 -0.9792
  143SOL     OW  517   0.186   1.333   3.797 -0.1809 -0.3147 -0.4435
  143SOL    HW1  518   0.143   1.293   3.873  1.1159  1.3741  1.2670
  143SOL    HW2  519   0.278   1.306   3.804 -0.0884 -0.3534 -1.5957
  144SOL     OW  520   3.251   0.604   2.248  0.2631 -0.2433 -0.2925
  144SOL    HW1  521   3.292   0.648   2.323 -0.6416  1.0029 -0.4894
  144SOL    HW2  522   3.284   0.515   2.252  3.6624  0.8453 -0.9282
  145SOL     OW  523   3.022   0.697   2.117  0.0724  0.1378  0.0597
  145SOL    HW1  524   3.113   0.682   2.143  0.9134  2.2979 -1.3146
  145SOL    HW2  525   3.019   0.674   2.024 -1.0890 -0.9114  0.3312
  146SOL     OW  526   0.484   2.925   0.214 -0.2440  0.4948  0.2788
  146SOL    HW1  527   0.533   2.998   0.251 -1.3570  2.1760 -1.3780
  146SOL    HW2  528   0.393   2.941   0.241 -0.3853 -0.7647  0.6021
  147SOL     OW  529   0.692   1.876   1.689  0.2878  0.4282 -0.2149
  147SOL    HW1  530   0.687   1.783   1.665 -2.2219 -0.0736  1.7662
  147SOL    HW2  531   0.757   1.879   1.759  0.8155  0.2656 -0.6991
  148SOL     OW  532   3.096   0.937   0.899  0.5134 -0.0159  0.0171
  148SOL    HW1  533   3.075   0.946   0.807  1.4476 -0.0423 -0.2153
  148SOL    HW2  534   3.192   0.930   0.901  0.7409  2.4835  1.1858
  149SOL     OW  535   0.731   1.531   3.728  0.3333 -0.4932  0.1569
  149SOL    HW1  536   0.670   1.604   3.722  0.1922 -0.6763 -0.9017
  149SOL    HW2  537   0.710   1.488   3.811 -0.0522  0.2490  0.4505
  150SOL     OW  538   3.522   0.370   0.628  0.3151 -0.1585 -0.1001
  150SOL    HW1  539   3.572   0.390   0.707 -0.6059  0.0398  0.4457
  150SOL    HW2  540   3.458   0.305   0.655 -1.4665  1.5056 -0.1148
  151SOL     OW  541   1.106   2.172   2.873  0.1409  0.3704  0.1462
  151SOL    HW1  542   1.072   2.243   2.928  0.7352 -1.2646  2.8538
  151SOL    HW2  543   1.187   2.207   2.836  0.4119  1.1618  1.3957
  152SOL     OW  544   3.786   0.936   2.979 -0.0500  0.3673 -0.3550
  152SOL    HW1  545   3.793   1.031   2.988  1.4234  0.1900  0.6350
  152SOL    HW2  546   3.827   0.916   2.895  1.7139  0.4075  0.4704
  153SOL     OW  547   0.523   0.060   3.036  0.3652  0.2456 -0.0416
  153SOL    HW1  548   0.528   0.153   3.056 -1.4255 -0.0221  1.9740
  153SOL    HW2  549   0.464   0.054   2.961  0.5937  0.7318 -0.2605
  154SOL     OW  550   0.624   2.695   0.321  0.0182 -0.3496 -0.2233
  154SOL    HW1  551   0.669   2.659   0.244  0.6534  2.1657 -1.1143
  154SOL    HW2  552   0.584   2.776   0.290  0.7877  1.0644  2.2295
  155SOL     OW  553   3.096   2.548   2.432  0.5869  0.2502  0.2153
  155SOL    HW1  554   3.074   2.494   2.508  0.6416  0.4045  0.3410
  155SOL    HW2  555   3.090   2.488   2.358 -1.8984  0.6552  0.0146
  156SOL     OW  556   1.041   1.290   0.558  0.4909 -0.1398  0.0798
  156SOL    HW1  557   1.045   1.196   0.574 -0.7140 -0.6273 -2.0555
  156SOL    HW2  558   1.114   1.308   0.500  1.2585  0.4645  1.1829
  157SOL     OW  559   3.309   0.120   1.329  0.5497  0.1479  0.3540
  157SOL    HW1  560   3.307   0.061   1.405  0.4566  0.1830  0.3789
  157SOL    HW2  561   3.232   0.176   1.340  0.8944  0.5833  0.5722
  158SOL     OW  562   1.857   2.950   1.021 -0.4657 -0.2189 -0.3363
  158SOL    HW1  563   1.838   2.875   0.964 -1.2143  0.1879 -0.6299
  158SOL    HW2  564   1.780   3.005   1.015  0.3990  0.9868 -0.7545
  159SOL     OW  565   2.453   3.099   2.434  0.3422  0.0685 -0.3505
  159SOL    HW1  566   2.423   3.160   2.501 -2.0020 -2.5129  1.1473
  159SOL    HW2  567   2.390   3.109   2.363 -0.2563 -0.7940  0.0446
  160SOL     OW  568   3.192   1.011   3.527 -0.4044  0.4483 -0.3193
  160SOL    HW1  569   3.238   1.052   3.600  0.9051  0.4487 -1.1195
  160SOL    HW2  570   3.104   0.995   3.561 -0.4289  2.2707  0.6051
  161SOL     OW  571   0.019   0.079   2.266 -0.5725 -0.7368  0.2394
  161SOL    HW1  572   0.098   0.054   2.219 -0.5026 -1.8503  0.8952
  161SOL    HW2  573  -0.051   0.073   2.201 -0.4058 -1.7713  0.1371
  162SOL     OW  574   2.701   1.550   2.712 -0.2189 -0.5406  0.1631
  162SOL    HW1  575   2.631   1.484   2.706 -0.5972 -0.1377  0.1150
  162SOL    HW2  576   2.754   1.521   2.787  1.6903 -2.8662 -1.8869
  163SOL     OW  577   2.810   3.712   0.382 -0.1548 -0.1696  0.2656
  163SOL    HW1  578   2.834   3.653   0.453 -1.8312 -1.5774 -0.2667
  163SOL    HW2  579   2.736   3.762   0.416 -0.3572 -0.1695 -0.1693
  164SOL     OW  580   1.681   3.352   0.952 -0.4092 -0.1629 -0.2589
  164SOL    HW1  581   1.690   3.385   1.042 -1.6461 -0.7180  0.0826
  164SOL    HW2  582   1.691   3.430   0.897  0.8682  0.1146  0.3057
  165SOL     OW  583   1.193   0.740   0.283 -0.4483  0.6262  0.0091
  165SOL    HW1  584   1.179   0.727   0.189 -0.0773 -0.6966  0.1215
  165SOL    HW2  585   1.161   0.829   0.299  0.1276  1.1453 -1.4925
  166SOL     OW  586   0.034   1.411   1.543  0.0874  0.1860  0.4581
  166SOL    HW1  587   0.020   1.393   1.450  0.4389  2.0027  0.0106
  166SOL    HW2  588   0.104   1.351   1.569  0.8137  0.4877 -0.7670
  167SOL     OW  589   3.333   3.188   2.471  0.3064 -0.2223 -0.2093
  167SOL    HW1  590   3.244   3.206   2.502 -0.1839 -4.2101  1.2942
  167SOL    HW2  591   3.390   3.225   2.538 -0.2879  0.5112 -0.0957
  168SOL     OW  592   3.025   1.736   2.749  0.5740  0.5560  0.3657
  168SOL    HW1  593   3.055   1.751   2.659  0.6780 -0.1751  0.2751
  168SOL    HW2  594   2.964   1.808   2.766 -0.2761  0.0932 -0.6712
  169SOL     OW  595   2.829   2.976   1.162  0.0702 -0.1143 -0.1317
  169SOL    HW1  596   2.740   2.970   1.129 -0.5982 -1.7296  1.8026
  169SOL    HW2  597   2.884   2.972   1.084 -1.5108  0.5062 -1.3289
  170SOL     OW  598   3.618   1.999   3.468 -0.2706 -0.2068  0.1064
  170SOL    HW1  599   3.656   1.971   3.385 -2.8148 -1.5150 -0.7122
  170SOL    HW2  600   3.666   2.080   3.490  2.4845 -1.4014 -1.0455
  171SOL     OW  601   0.323   0.781   1.750 -0.2908  0.3600  0.1091
  171SOL    HW1  602   0.257   0.745   1.808  0.5009  0.0161  0.8158
  171SOL    HW2  603   0.285   0.774   1.663 -0.3550 -1.7934  0.2522
  172SOL     OW  604   1.764   2.296   3.273 -0.5074 -0.0104  0.2052
  172SOL    HW1  605   1.856   2.315   3.260 -0.8836  0.4181 -2.4118
  172SOL    HW2  606   1.719   2.376   3.246 -1.6727 -0.1144  1.6837
  173SOL     OW  607   2.012   0.485   1.168  0.3950  0.7068 -0.0794
  173SOL    HW1  608   2.042   0.427   1.239  1.4019 -2.1304 -2.5994
  173SOL    HW2  609   2.087   0.541   1.150  1.1030 -0.3687 -0.5755
  174SOL     OW  610   0.785   1.395   3.510 -0.1200  0.0170  0.3135
  174SOL    HW1  611   0.836   1.316   3.531 -0.6792 -0.3985  0.1363
  174SOL    HW2  612   0.780   1.443   3.592  0.6790  0.1375  0.3019
  175SOL     OW  613   0.216   0.008   2.585 -0.1282  0.3234 -0.3268
  175SOL    HW1  614   0.283   0.005   2.653  1.7802 -1.9352 -2.1264
  175SOL    HW2  615   0.199   0.101   2.572  0.5184  0.8617  2.1506
  176SOL     OW  616   2.101   2.309   1.217  0.0622  0.3226  0.1874
  176SOL    HW1  617   2.020   2.359   1.210  0.0131  0.1504 -0.6359
  176SOL    HW2  618   2.170   2.371   1.192  0.1080  0.2786  0.2033
  177SOL     OW  619   0.316   1.881   1.982 -0.4056 -0.0904  0.1951
  177SOL    HW1  620   0.314   1.899   1.888  1.3340 -0.5581  0.0275
  177SOL    HW2  621   0.265   1.800   1.992 -0.7708  0.0715 -0.3195
  178SOL     OW  622   1.617   3.177   3.807  0.0051  0.7057 -1.1206
  178SOL    HW1  623   1.709   3.164   3.785  0.6881  1.6147  1.0706
  178SOL    HW2  624   1.616   3.251   3.867 -1.6393 -1.7664  2.1810
  179SOL     OW  625   3.591   1.101   0.416 -0.4338 -0.5260 -0.5367
  179SOL    HW1  626   3.684   1.119   0.400 -0.4867  0.5317  0.2716
  179SOL    HW2  627   3.545   1.151   0.349 -0.4102 -1.8206 -1.5579
  180SOL     OW  628   0.998   2.111   0.438  0.0854  0.2009 -0.1777
  180SOL    HW1  629   0.961   2.193   0.406 -0.6115  0.2407  0.7021
  180SOL    HW2  630   0.930   2.046   0.422  0.5892 -0.1987 -0.7669
  181SOL     OW  631   0.433   1.798   3.417 -0.0806  0.3735  0.8603
  181SOL    HW1  632   0.518   1.833   3.393 -1.1634  2.0907 -0.8228
  181SOL    HW2  633   0.439   1.704   3.398  1.3599  0.4894  0.6307
  182SOL     OW  634   2.702   3.878   1.518 -0.6766  0.0766  0.9044
  182SOL    HW1  635   2.666   3.874   1.606 -0.2203 -1.5883  1.0510
  182SOL    HW2  636   2.630   3.849   1.462 -0.0994 -1.7792  1.0534
  183SOL     OW  637   2.776   2.505   1.697 -0.5376  0.3252  0.1501
  183SOL    HW1  638   2.848   2.548   1.743  0.4070 -0.4798 -0.5083
  183SOL    HW2  639   2.727   2.460   1.766  1.3309 -1.5471  0.3905
  184SOL     OW  640   1.456   1.808   0.916  0.1328 -0.5424  0.3371
  184SOL    HW1  641   1.373   1.796   0.870 -0.1398 -1.4801  1.0486
  184SOL    HW2  642   1.438   1.783   1.006  0.9912  0.0237  0.6789
  185SOL     OW  643   0.549   1.414   3.379  0.2433  0.0534  0.2241
  185SOL    HW1  644   0.635   1.427   3.418 -0.1431  0.4857  0.9580
  185SOL    HW2  645   0.567   1.379   3.292  1.1107 -1.5691  1.0147
  186SOL     OW  646   3.586   3.733   0.605  0.2352  0.4280 -0.1421
  186SOL    HW1  647   3.581   3.753   0.511  0.4696 -0.4643 -0.3520
  186SOL    HW2  648   3.673   3.696   0.617 -0.4986 -1.3575  0.0338
  187SOL     OW  649   0.014   3.479   3.743  0.2311  0.2948  0.6045
  187SOL    HW1  650   0.040   3.468   3.835  0.5591 -1.7294  0.2956
  187SOL    HW2  651  -0.078   3.454   3.741  0.4337 -0.4262  0.2429
  188SOL     OW  652   0.552   2.340   1.070  0.1735 -0.3771  0.2618
  188SOL    HW1  653   0.615   2.326   0.999 -0.6271 -1.1522 -0.3238
  188SOL    HW2  654   0.509   2.255   1.081 -0.1807 -0.0876  1.2276
  189SOL     OW  655   2.268   2.390   0.224  0.1967  0.0707  0.0609
  189SOL    HW1  656   2.348   2.397   0.172 -0.2913  0.6110 -0.6288
  189SOL    HW2  657   2.247   2.296   0.224 -0.2353  0.1409 -1.4073
  190SOL     OW  658   2.627   0.706   2.843  0.3064 -0.1018  0.2695
  190SOL    HW1  659   2.532   0.700   2.834  0.2028 -1.5045  1.9011
  190SOL    HW2  660   2.660   0.619   2.820  1.3208  0.5870 -1.0912
  191SOL     OW  661   3.472   2.648   3.299 -0.4186 -0.1119 -0.3339
  191SOL    HW1  662   3.490   2.742   3.304 -2.1548  0.2993 -0.8532
  191SOL    HW2  663   3.551   2.610   3.261  0.1769  1.1985 -0.4619
  192SOL     OW  664   3.019   1.174   2.348  0.1447  0.0087 -0.0604
  192SOL    HW1  665   3.035   1.085   2.381  2.2239  0.5151  0.4572
  192SOL    HW2  666   3.090   1.226   2.385 -1.2402  1.9905 -0.0541
  193SOL     OW  667   3.811   1.703   2.386 -0.3482 -0.7890  0.5022
  193SOL    HW1  668   3.820   1.618   2.343  0.3930 -1.1390  1.3254
  193SOL    HW2  669   3.739   1.691   2.448 -1.3071 -0.3322 -0.4845
  194SOL     OW  670   2.549   2.871   1.257  0.1830 -0.1061  0.1189
  194SOL    HW1  671   2.636   2.911   1.253  0.6873 -1.0020  1.3093
  194SOL    HW2  672   2.567   2.777   1.254 -0.5774 -0.3659  2.1618
  195SOL     OW  673   2.275   0.450   2.243 -0.0415 -0.2941 -0.1524
  195SOL    HW1  674   2.205   0.402   2.198 -0.1766  0.1835 -0.4585
  195SOL    HW2  675   2.336   0.382   2.272 -0.6431 -0.7148  0.1387
  196SOL     OW  676   0.995   2.845   3.797  0.0453 -0.0172 -0.1442
  196SOL    HW1  677   1.029   2.931   3.771 -0.9333 -0.1407 -1.9718
  196SOL    HW2  678   0.928   2.865   3.862 -0.3844  0.6466 -0.7736
  197SOL     OW  679   1.138   3.351   0.455  0.4040 -0.2576 -0.1030
  197SOL    HW1  680   1.197   3.417   0.493  1.0700 -0.6741 -0.3950
  197SOL    HW2  681   1.116   3.386   0.369  0.8838 -0.4768 -0.3221
  198SOL     OW  682   1.143   2.548   2.441  0.4425  0.1402  0.8897
  198SOL    HW1  683   1.142   2.560   2.346  0.2665 -0.5520  0.7970
  198SOL    HW2  684   1.229   2.579   2.468  0.2474  0.9805  0.6023
  199SOL     OW  685   3.698   2.890   2.642  0.0357  0.3563 -0.0263
  199SOL    HW1  686   3.604   2.907   2.651 -0.0800 -0.5942  0.6298
  199SOL    HW2  687   3.707   2.796   2.653  1.0916  0.4568  0.0606
  200SOL     OW  688   3.832   1.923   2.013 -0.8195 -0.0530  0.6289
  200SOL    HW1  689   3.774   1.851   1.988  0.1200 -0.2649 -1.1615
  200SOL    HW2  690   3.798   1.999   1.965 -1.2338  0.4834  1.7493
  201SOL     OW  691   1.575   3.823   0.343 -0.2690 -0.0650  0.2834
  201SOL    HW1  692   1.637   3.894   0.361  0.7808 -0.3905 -1.7291
  201SOL    HW2  693   1.623   3.763   0.287 -1.4798 -1.8916  1.1132
  202SOL     OW  694   2.866   1.650   0.404 -0.2032 -0.4672 -0.1881
  202SOL    HW1  695   2.850   1.650   0.499 -0.0930 -1.8346 -0.1437
  202SOL    HW2  696   2.935   1.715   0.392 -0.7338  0.2647  0.5637
  203SOL     OW  697   0.580   0.546   3.765 -1.0848  0.4415 -0.7614
  203SOL    HW1  698   0.611   0.456   3.763 -1.7906  0.1951 -0.5722
  203SOL    HW2  699   0.520   0.550   3.839  3.1437  2.4523  3.0535
  204SOL     OW  700   2.876   1.974   2.675  0.0385  1.0327 -0.2387
  204SOL    HW1  701   2.899   1.959   2.583 -1.7949  0.9316 -0.7110
  204SOL    HW2  702   2.782   1.992   2.674  0.0700  1.4833  1.5782
  205SOL     OW  703   1.646   2.820   1.581  0.3335 -0.3234 -0.1420
  205SOL    HW1  704   1.587   2.817   1.656 -1.2809  0.5914 -1.2959
  205SOL    HW2  705   1.720   2.765   1.606 -0.6349 -0.8795  1.6919
  206SOL     OW  706   2.696   2.527   0.158  0.1115  0.0571 -0.1813
  206SOL    HW1  707   2.731   2.499   0.073 -1.1316 -1.5909 -0.2016
  206SOL    HW2  708   2.610   2.484   0.164  0.1748  0.1263  1.9213
  207SOL     OW  709   3.162   3.630   3.689 -0.2224 -0.5020 -0.2448
  207SOL    HW1  710   3.113   3.550   3.711 -0.0353 -1.2796 -2.3599
  207SOL    HW2  711   3.177   3.623   3.594 -1.0056  2.5138 -0.6904
  208SOL     OW  712   0.057   2.175   0.381 -0.6185 -0.4906 -0.5481
  208SOL    HW1  713   0.101   2.190   0.464 -1.4069 -1.8856  0.1524
  208SOL    HW2  714   0.071   2.256   0.332  0.2041  0.2051  0.7718
  209SOL     OW  715   0.094   3.689   2.475 -0.1406 -0.2197  0.1495
  209SOL    HW1  716   0.141   3.763   2.514  2.0976 -1.3891 -0.2117
  209SOL    HW2  717   0.122   3.687   2.384 -0.1837 -1.4798  0.1445
  210SOL     OW  718   3.626   2.279   0.544  0.2140  0.1645 -0.1415
  210SOL    HW1  719   3.658   2.368   0.526 -0.9161  0.4834 -0.6819
  210SOL    HW2  720   3.671   2.253   0.624  2.5313  0.2037 -1.3332
  211SOL     OW  721   0.156   0.092   0.062  0.2323 -0.2805  0.3343
  211SOL    HW1  722   0.096   0.017   0.060 -0.2163 -0.0050  2.0520
  211SOL    HW2  723   0.111   0.157   0.116  1.2095  0.7016 -0.0210
  212SOL     OW  724   1.183   2.829   2.400  0.2203  0.4281  0.3824
  212SOL    HW1  725   1.153   2.799   2.485  0.3543  0.3551  0.4038
  212SOL    HW2  726   1.273   2.856   2.414  0.7961 -1.1243 -0.0843
  213SOL     OW  727   3.298   1.021   3.240 -0.4191 -0.1382  0.6148
  213SOL    HW1  728   3.230   1.062   3.187  0.3691  1.0991  0.5073
  213SOL    HW2  729   3.262   1.020   3.329 -0.0563  1.8104  0.8174
  214SOL     OW  730   1.113   1.691   1.768 -0.4687 -0.1942  0.3317
  214SOL    HW1  731   1.058   1.642   1.707  1.2673 -1.0177 -0.6454
  214SOL    HW2  732   1.202   1.680   1.735  0.1039  3.0944  0.4473
  215SOL     OW  733   2.303   0.434   1.100 -0.5804  0.1524 -0.1215
  215SOL    HW1  734   2.283   0.411   1.010 -2.4841  1.6595 -0.1607
  215SOL    HW2  735   2.352   0.359   1.134 -0.2346 -0.6557 -2.2347
  216SOL     OW  736   0.105   1.080   1.004 -0.4298  0.7544 -0.7419
  216SOL    HW1  737   0.092   1.091   1.098 -1.6617  1.8192 -1.0047
  216SOL    HW2  738   0.018   1.093   0.966 -0.1844 -0.8037 -1.9516
  217SOL     OW  739   2.747   3.542   2.958 -0.4603  0.2423  0.0840
  217SOL    HW1  740   2.712   3.585   2.880  0.1383  0.5106 -0.0390
  217SOL    HW2  741   2.835   3.515   2.933 -0.7915 -1.0015  0.1816
  218SOL     OW  742   2.086   0.028   0.691  0.1135  0.3184  0.2181
  218SOL    HW1  743   2.067  -0.040   0.756  2.2643  0.8798  1.5600
  218SOL    HW2  744   2.135  -0.017   0.622 -1.6648 -0.1612 -0.7937
  219SOL     OW  745   1.579   2.361   1.721 -0.4358 -0.2518  0.0686
  219SOL    HW1  746   1.654   2.302   1.731 -0.5413 -0.5310 -0.7315
  219SOL    HW2  747   1.614   2.437   1.674 -0.4040  0.1257  0.6957
  220SOL     OW  748   0.730   2.355   2.517 -0.6724  0.0673 -0.3800
  220SOL    HW1  749   0.822   2.383   2.522 -0.5014 -0.2599 -1.4860
  220SOL    HW2  750   0.733   2.268   2.478 -1.4170 -0.2074  0.1594
  221SOL     OW  751   1.251   2.468   2.819 -0.3920 -0.7662 -0.0656
  221SOL    HW1  752   1.186   2.511   2.764 -0.8423 -2.4676 -0.9052
  221SOL    HW2  753   1.232   2.500   2.907 -1.0776  0.2787 -0.5674
  222SOL     OW  754   3.237   0.200   2.611  0.0543 -0.5015 -0.5302
  222SOL    HW1  755   3.251   0.250   2.691 -2.5275 -2.1609  1.1320
  222SOL    HW2  756   3.309   0.136   2.609 -0.6488 -1.4052  1.3379
  223SOL     OW  757   3.828   1.734   3.458 -0.2566  0.7121 -0.4643
  223SOL    HW1  758   3.862   1.648   3.434 -1.2054  0.0399  0.5534
  223SOL    HW2  759   3.865   1.752   3.544 -1.5343  0.4852  0.1453
  224SOL     OW  760   0.701   3.878   3.556 -0.1965 -0.0606  0.6429
  224SOL    HW1  761   0.623   3.933   3.552  0.7820  1.3631  0.2923
  224SOL    HW2  762   0.769   3.930   3.514  0.7156 -1.6796  0.0244
  225SOL     OW  763   0.180   2.522   3.570 -0.4327 -0.3719 -0.1986
  225SOL    HW1  764   0.265   2.488   3.542  0.4208  0.5276  1.1643
  225SOL    HW2  765   0.160   2.591   3.507  0.2356 -0.0705 -0.0944
  226SOL     OW  766   0.123   0.904   0.699  0.8852 -0.5072  0.1482
  226SOL    HW1  767   0.185   0.848   0.652 -0.6359 -0.6458 -1.8241
  226SOL    HW2  768   0.065   0.844   0.745  1.4645 -0.4153  1.0129
  227SOL     OW  769   3.138   2.078   2.614  0.7540  0.2603 -0.0518
  227SOL    HW1  770   3.089   2.067   2.695  0.5326  1.3777 -0.0113
  227SOL    HW2  771   3.096   2.019   2.551 -0.6682  1.2073 -0.0231
  228SOL     OW  772   2.367   2.084   2.110 -0.5623  0.2791  0.7037
  228SOL    HW1  773   2.362   1.993   2.138  0.8638 -0.2942 -0.7234
  228SOL    HW2  774   2.461   2.104   2.111 -0.6406  0.9773 -1.1782
  229SOL     OW  775   1.512   3.237   1.305 -0.4862  0.6623  0.0890
  229SOL    HW1  776   1.560   3.262   1.383 -1.5898 -0.6640  1.2419
  229SOL    HW2  777   1.538   3.147   1.288 -0.9501  0.6400 -0.5548
  230SOL     OW  778   1.643   3.460   2.034  0.1408 -0.1053 -0.1161
  230SOL    HW1  779   1.552   3.444   2.061  0.3412 -1.3137 -0.0938
  230SOL    HW2  780   1.647   3.554   2.017 -1.4932 -0.2316 -1.4822
  231SOL     OW  781   2.630   2.878   2.265  0.4951  0.5352  0.7729
  231SOL    HW1  782   2.553   2.825   2.243  0.5926  0.5713  0.3324
  231SOL    HW2  783   2.594   2.960   2.299  0.3367  0.4999  0.6940
  232SOL     OW  784   1.960   1.205   1.143 -0.0072  0.3051  0.0344
  232SOL    HW1  785   2.003   1.285   1.111 -0.2870  1.3226  2.0517
  232SOL    HW2  786   2.031   1.151   1.176  0.2408 -0.5847 -1.7876
  233SOL     OW  787   3.145   1.087   1.759 -0.5631 -0.1695 -0.0109
  233SOL    HW1  788   3.156   1.080   1.854  2.1104 -0.7461 -0.2799
  233SOL    HW2  789   3.179   1.004   1.725 -2.8108 -0.5759 -1.4427
  234SOL     OW  790   2.958   3.276   3.047  0.3036  0.5572  0.1571
  234SOL    HW1  791   3.046   3.291   3.083  1.1133  1.2978 -2.0019
  234SOL    HW2  792   2.959   3.320   2.962 -2.6502  1.8042  0.6650
  235SOL     OW  793   2.985   2.734   2.874  0.4100 -0.5375 -0.6113
  235SOL    HW1  794   3.010   2.823   2.848 -0.7511 -0.0045  0.0203
  235SOL    HW2  795   3.063   2.681   2.855  1.2172  0.6503 -0.7555
  236SOL     OW  796   2.727   1.741   3.005  0.8196  0.2230  0.8176
  236SOL    HW1  797   2.802   1.783   2.962 -1.2968  1.4778 -1.9504
  236SOL    HW2  798   2.664   1.812   3.018 -1.1664 -1.3060  0.0375
  237SOL     OW  799   3.851   2.623   2.424  0.1311 -0.3895 -0.2426
  237SOL    HW1  800   3.832   2.708   2.384 -0.5559 -0.4873 -0.1323
  237SOL    HW2  801   3.847   2.640   2.518  2.5106  0.0193 -0.1469
  238SOL     OW  802   2.386   3.338   2.719 -0.0265  0.2477 -0.0854
  238SOL    HW1  803   2.297   3.325   2.750 -0.3612  1.4436 -0.4697
  238SOL    HW2  804   2.439   3.275   2.769 -0.7296  1.1584  1.9192
  239SOL     OW  805   1.089   2.659   2.085  1.0681  0.1178 -0.3926
  239SOL    HW1  806   1.040   2.708   2.150  0.5207 -1.0021  0.0537
  239SOL    HW2  807   1.179   2.693   2.092  0.7823  0.7719  0.1729
  240SOL     OW  808   3.010   0.594   3.156  0.1585 -0.5352  0.5382
  240SOL    HW1  809   2.954   0.520   3.176 -2.3644  1.3416  0.9141
  240SOL    HW2  810   2.985   0.621   3.068  1.1203 -0.1563  0.3570
  241SOL     OW  811   1.349   2.801   2.102  0.2192 -0.1901 -0.1889
  241SOL    HW1  812   1.384   2.846   2.178  0.4265  1.1094 -1.0315
  241SOL    HW2  813   1.423   2.752   2.067  0.4515  0.2326 -0.2904
  242SOL     OW  814   3.386   2.398   0.323  0.7979 -0.0848 -0.3357
  242SOL    HW1  815   3.454   2.400   0.391  0.4130  0.7324  0.0412
  242SOL    HW2  816   3.368   2.490   0.305  0.1618 -0.3008 -0.8125
  243SOL     OW  817   2.695   1.745   1.218  0.0630 -0.3113 -0.6323
  243SOL    HW1  818   2.617   1.797   1.240  0.9645  1.2331 -0.9193
  243SOL    HW2  819   2.685   1.665   1.270 -0.8313  0.6239  0.7302
  244SOL     OW  820   1.082   2.359   2.107  0.2258 -0.1733  0.4356
  244SOL    HW1  821   1.116   2.327   2.023  1.7052 -0.8032  1.2336
  244SOL    HW2  822   1.068   2.453   2.093  0.6948 -0.2235 -0.4482
  245SOL     OW  823   0.740   1.436   1.231 -0.2589 -0.2301  0.1067
  245SOL    HW1  824   0.774   1.356   1.190  2.5918  1.2088 -0.5812
  245SOL    HW2  825   0.722   1.494   1.158  2.1624  1.3472  0.6375
  246SOL     OW  826   0.428   3.214   1.012  0.5724 -0.2874 -0.3734
  246SOL    HW1  827   0.358   3.266   1.050  1.0515  1.0760 -1.2677
  246SOL    HW2  828   0.508   3.250   1.052  0.8103 -1.4506  0.2224
  247SOL     OW  829   1.578   0.112   1.385  0.5159 -0.1382  0.1940
  247SOL    HW1  830   1.501   0.056   1.396  0.9510 -0.5570  1.2833
  247SOL    HW2  831   1.651   0.051   1.377  0.9080  0.2605  0.6565
  248SOL     OW  832   1.193   1.130   1.901 -0.3609 -0.7642  0.7155
  248SOL    HW1  833   1.282   1.162   1.882 -1.3951  1.0212 -1.7336
  248SOL    HW2  834   1.199   1.035   1.892  1.4105 -0.7255  1.1766
  249SOL     OW  835   3.838   3.682   1.871  0.5134 -0.3158 -0.2665
  249SOL    HW1  836   3.891   3.758   1.892 -0.2899  0.2245 -0.1511
  249SOL    HW2  837   3.863   3.659   1.782  1.2390 -0.3331 -0.0650
  250SOL     OW  838   0.181   2.390   0.252 -0.0936  0.0342 -0.2415
  250SOL    HW1  839   0.152   2.450   0.321  0.2201 -0.1518  0.0578
  250SOL    HW2  840   0.258   2.433   0.214 -1.2694  0.9902 -1.6788
  251SOL     OW  841   1.999   1.960   0.858  0.2383  0.9325  0.1730
  251SOL    HW1  842   2.017   2.028   0.923  0.7171  2.4063 -1.4216
  251SOL    HW2  843   2.049   1.987   0.781 -1.5355  0.1301 -1.3396
  252SOL     OW  844   2.265   3.034   2.215  0.4248  0.0316  0.1037
  252SOL    HW1  845   2.177   3.062   2.188  0.6445  0.3250 -0.3284
  252SOL    HW2  846   2.310   3.016   2.133  1.0327  0.7132  0.2815
  253SOL     OW  847   0.732   2.263   0.074 -0.6023 -0.1217  0.3485
  253SOL    HW1  848   0.695   2.236  -0.010 -0.0520  0.8565 -0.2255
  253SOL    HW2  849   0.683   2.213   0.139 -2.5234  0.6937 -0.4181
  254SOL     OW  850   3.646   0.477   1.903 -0.2007 -0.0785  0.0187
  254SOL    HW1  851   3.717   0.521   1.950  0.5517 -1.3698  0.1500
  254SOL    HW2  852   3.567   0.498   1.952  0.5632 -1.4329  1.9196
  255SOL     OW  853   1.498   1.705   0.210 -0.3686  0.2027 -0.4515
  255SOL    HW1  854   1.521   1.696   0.118  4.1738  0.1084  0.4815
  255SOL    HW2  855   1.528   1.793   0.235  1.9081 -1.0273  1.6129
  256SOL     OW  856   0.979   1.807   0.417 -0.6159 -0.3062 -0.4088
  256SOL    HW1  857   0.930   1.810   0.499 -0.5079  0.5052 -0.3657
  256SOL    HW2  858   1.071   1.816   0.443 -0.5859  0.0224 -0.6191
  257SOL     OW  859   1.046   2.350   0.867 -0.4656  0.3301  0.7909
  257SOL    HW1  860   1.028   2.438   0.899  0.2173  0.4779  0.7998
  257SOL    HW2  861   1.141   2.340   0.879 -0.6756 -0.7645  1.6943
  258SOL     OW  862   3.619   1.557   2.544 -0.2733 -0.3681  0.4876
  258SOL    HW1  863   3.555   1.627   2.546  1.7749  1.6230  1.7017
  258SOL    HW2  864   3.602   1.507   2.624  1.1307  1.6859  2.1963
  259SOL     OW  865   1.497   2.836   1.801 -0.3549  0.0342  0.1567
  259SOL    HW1  866   1.530   2.775   1.867  0.6726 -1.0095 -1.2460
  259SOL    HW2  867   1.405   2.812   1.789 -0.8652  0.9275  1.8957
  260SOL     OW  868   3.328   3.523   1.798 -0.6767 -0.0602  0.4157
  260SOL    HW1  869   3.233   3.524   1.803 -0.7681 -2.3516  0.3150
  260SOL    HW2  870   3.357   3.498   1.886 -0.2840 -1.0252  0.0285
  261SOL     OW  871   3.304   1.896   0.598 -0.4343  0.1700  0.0729
  261SOL    HW1  872   3.219   1.906   0.642 -0.6425  1.6142 -0.5858
  261SOL    HW2  873   3.344   1.983   0.605 -0.4976  0.4895 -2.5851
  262SOL     OW  874   2.025   1.930   2.255 -0.1980  0.1461  0.7226
  262SOL    HW1  875   2.117   1.955   2.250 -0.8071  2.4720  0.2703
  262SOL    HW2  876   2.020   1.873   2.332  1.6420 -0.3037  0.5602
  263SOL     OW  877   0.515   3.450   3.155  0.4966  0.0622  0.0974
  263SOL    HW1  878   0.534   3.421   3.065 -0.7707 -0.1065 -0.1338
  263SOL    HW2  879   0.480   3.538   3.145  2.2369  0.8592  0.6234
  264SOL     OW  880   0.081   0.501   2.281  0.3077  0.1040 -0.1964
  264SOL    HW1  881   0.013   0.466   2.224  0.7940 -1.6191  0.2258
  264SOL    HW2  882   0.034   0.560   2.340 -0.6518 -0.2838 -0.5471
  265SOL     OW  883   3.200   3.453   0.738 -0.7191  0.2841 -0.1235
  265SOL    HW1  884   3.116   3.475   0.778 -0.9716  0.6588 -0.8516
  265SOL    HW2  885   3.193   3.360   0.716 -0.7509  0.1919  0.2615
  266SOL     OW  886   0.461   2.673   2.468 -0.2055  0.5427 -0.5481
  266SOL    HW1  887   0.524   2.630   2.527 -0.4549  1.3991  0.3647
  266SOL    HW2  888   0.422   2.600   2.419  0.5458 -0.1252 -0.1918
  267SOL     OW  889   1.738   1.588   3.561  0.1814  0.3596  0.4359
  267SOL    HW1  890   1.696   1.506   3.586  2.0390 -0.7728  0.0225
  267SOL    HW2  891   1.735   1.589   3.466  1.0972  0.2277  0.3945
  268SOL     OW  892   0.949   3.855   2.865  0.6288  0.2833 -0.1909
  268SOL    HW1  893   0.932   3.924   2.801 -0.5207 -0.4953 -0.7505
  268SOL    HW2  894   0.924   3.894   2.949  1.1919  0.9650 -0.3291
  269SOL     OW  895   3.004   3.383   0.075  0.2969  0.6885  0.1522
  269SOL    HW1  896   3.078   3.435   0.106  0.1815  1.7629 -1.2989
  269SOL    HW2  897   3.002   3.307   0.134  1.1144  1.7875  1.6461
  270SOL     OW  898   3.280   0.350   2.331  0.2342 -0.5299 -0.5074
  270SOL    HW1  899   3.316   0.304   2.407 -1.5047  0.0748  0.7430
  270SOL    HW2  900   3.185   0.334   2.335 -0.2243  1.6712 -1.0369
  271SOL     OW  901   3.480   2.224   2.082 -0.3601 -0.3697  0.0077
  271SOL    HW1  902   3.434   2.307   2.089  0.1119  0.1381 -2.1661
  271SOL    HW2  903   3.411   2.158   2.080 -0.8712  0.1678 -0.4563
  272SOL     OW  904   0.283   3.824   3.735 -0.2206  0.1161  0.9161
  272SOL    HW1  905   0.261   3.735   3.761 -0.3138 -0.3079 -0.5207
  272SOL    HW2  906   0.240   3.879   3.801 -0.3080 -0.8835  1.7229
  273SOL     OW  907   0.512   0.883   2.923 -0.5113 -1.0730 -0.2830
  273SOL    HW1  908   0.443   0.950   2.918 -1.0842 -1.6470 -0.0916
  273SOL    HW2  909   0.588   0.925   2.882 -1.0458 -0.5339 -0.7411
  274SOL     OW  910   1.134   1.636   3.653 -0.2253 -0.2257  0.2115
  274SOL    HW1  911   1.184   1.664   3.576  0.8255  0.8346  1.2327
  274SOL    HW2  912   1.076   1.710   3.671 -0.3951 -0.4251  0.4855
  275SOL     OW  913   2.227   1.140   1.200  0.0931  0.0780  0.1984
  275SOL    HW1  914   2.280   1.166   1.125 -0.1474  1.4485  0.4778
  275SOL    HW2  915   2.265   1.056   1.228  0.3428 -0.3406 -1.2790
  276SOL     OW  916   2.986   1.446   2.434 -0.5939  0.3578  0.0229
  276SOL    HW1  917   2.989   1.355   2.462 -2.7078  0.3440  0.3602
  276SOL    HW2  918   3.008   1.444   2.341  1.7716 -0.1573  0.5298
  277SOL     OW  919   0.716   0.287   0.190 -0.4016  0.3694  0.1281
  277SOL    HW1  920   0.796   0.235   0.196 -1.1492 -1.1724 -2.0524
  277SOL    HW2  921   0.646   0.223   0.188 -1.5347  1.5885 -0.3360
  278SOL     OW  922   1.379   1.147   1.146  0.2105  0.3186  0.0652
  278SOL    HW1  923   1.474   1.141   1.150  0.1270 -0.9483  0.9494
  278SOL    HW2  924   1.355   1.202   1.220  0.2406  0.3746  0.0331
  279SOL     OW  925   3.278   0.006   1.697  0.1732 -0.2316 -0.3534
  279SOL    HW1  926   3.365  -0.001   1.660  0.2395 -0.8022 -0.0919
  279SOL    HW2  927   3.220  -0.034   1.631  0.1332 -0.0587 -0.4247
  280SOL     OW  928   0.673   0.016   0.791 -0.5100 -0.2452  0.1325
  280SOL    HW1  929   0.707  -0.065   0.830 -0.7408 -0.0622  0.7236
  280SOL    HW2  930   0.638   0.065   0.865 -0.1178  0.5224 -0.1802
  281SOL     OW  931   3.804   0.782   3.469 -0.0321 -0.0917  0.1586
  281SOL    HW1  932   3.856   0.702   3.462 -0.0605 -0.2192  1.2643
  281SOL    HW2  933   3.730   0.768   3.409  0.4803 -0.4772 -0.3905
  282SOL     OW  934   2.717   0.017   0.710  0.0665  0.2175  0.2992
  282SOL    HW1  935   2.748  -0.074   0.705 -0.2005  0.1519 -0.1446
  282SOL    HW2  936   2.665   0.020   0.790 -1.0187 -0.3632 -0.3601
  283SOL     OW  937   3.832   1.184   0.004  0.4360 -0.9642 -0.1741
  283SOL    HW1  938   3.767   1.180  -0.065  1.9461  0.1929 -1.7541
  283SOL    HW2  939   3.831   1.097   0.044 -0.6099 -1.6038 -1.5270
  284SOL     OW  940   3.000   1.043   1.522  0.0660  0.0559 -0.2345
  284SOL    HW1  941   3.037   0.966   1.478  0.4936  1.2066 -1.9724
  284SOL    HW2  942   2.984   1.105   1.451 -2.7663  0.6110  0.7698
  285SOL     OW  943   2.706   3.673   2.192  0.1425 -0.6488  0.3304
  285SOL    HW1  944   2.679   3.710   2.108 -0.1449 -1.3902  0.0883
  285SOL    HW2  945   2.734   3.584   2.171  2.9581  0.0889  0.5463
  286SOL     OW  946   3.579   3.701   3.412 -0.0535 -0.1264  0.1862
  286SOL    HW1  947   3.498   3.750   3.404  0.4595  0.7405  0.1641
  286SOL    HW2  948   3.603   3.707   3.504 -0.0110 -0.3782  0.1934
  287SOL     OW  949   2.149   2.117   1.928  0.1442 -0.2706 -0.4462
  287SOL    HW1  950   2.141   2.212   1.916 -0.6572 -0.2127  0.4234
  287SOL    HW2  951   2.219   2.107   1.993 -1.3551 -0.1141  1.2846
  288SOL     OW  952   3.015   2.205   3.795  0.0017  0.0322 -0.5389
  288SOL    HW1  953   2.960   2.128   3.779 -1.6549  1.2016 -0.7677
  288SOL    HW2  954   3.060   2.186   3.877  1.6226 -2.2404 -1.8458
  289SOL     OW  955   2.516   2.136   3.858 -0.5957  0.6902  0.1184
  289SOL    HW1  956   2.422   2.139   3.841 -0.4097  1.7343 -0.8559
  289SOL    HW2  957   2.531   2.051   3.898 -2.1155  0.9366  1.2881
  290SOL     OW  958   2.370   3.836   3.667  0.6002  0.1393 -0.1110
  290SOL    HW1  959   2.455   3.863   3.702  1.2658 -1.3460 -0.5075
  290SOL    HW2  960   2.390   3.763   3.609 -1.0448 -0.9796  0.6463
  291SOL     OW  961   0.412   1.184   2.734  0.2896 -0.4579  0.0545
  291SOL    HW1  962   0.505   1.205   2.734  0.2668 -0.3526  0.5227
  291SOL    HW2  963   0.368   1.270   2.729  0.2173 -0.5593 -2.0323
  292SOL     OW  964   1.775   0.014   2.094  0.0872  0.0723 -0.2256
  292SOL    HW1  965   1.714   0.079   2.129 -0.5059 -1.5473  1.9361
  292SOL    HW2  966   1.721  -0.043   2.040 -0.5575 -1.7139  2.1599
  293SOL     OW  967   1.970   2.274   3.037 -0.0526 -0.0465 -0.0225
  293SOL    HW1  968   1.946   2.353   2.988 -2.6066  0.4059  1.7352
  293SOL    HW2  969   2.051   2.297   3.082 -0.3447  1.3166 -0.1506
  294SOL     OW  970   0.825   3.042   2.656  0.0684 -0.8566 -0.1076
  294SOL    HW1  971   0.840   3.014   2.747 -1.6602 -1.2829  0.0874
  294SOL    HW2  972   0.789   3.130   2.664  2.8060  0.4074 -0.5865
  295SOL     OW  973   1.464   0.693   3.824 -0.4143  0.3540 -0.9637
  295SOL    HW1  974   1.486   0.699   3.917  0.7577 -0.8687 -1.1310
  295SOL    HW2  975   1.521   0.757   3.782  0.5048 -0.4795 -1.0305
  296SOL     OW  976   0.318   3.588   3.523  0.2568  0.1836  0.4344
  296SOL    HW1  977   0.352   3.541   3.600  1.0058 -1.0320 -0.5980
  296SOL    HW2  978   0.264   3.524   3.478  1.4803  0.1976 -1.1297
  297SOL     OW  979   0.906   3.799   3.785  0.1205 -0.0973 -0.2506
  297SOL    HW1  980   0.867   3.821   3.701 -0.4316  1.0802  0.2800
  297SOL    HW2  981   0.967   3.871   3.802  0.9131 -0.7969 -0.0574
  298SOL     OW  982   0.964   1.132   2.205  0.1412 -0.4534 -0.4573
  298SOL    HW1  983   0.943   1.202   2.266 -3.2844  0.5032 -2.4749
  298SOL    HW2  984   0.912   1.057   2.235 -1.5905  0.0321 -2.0691
  299SOL     OW  985   3.853   2.161   2.457  0.5017  0.0533 -0.3957
  299SOL    HW1  986   3.862   2.213   2.377 -0.4026  1.0848  0.1511
  299SOL    HW2  987   3.762   2.173   2.484  0.7332 -0.4642  0.6682
  300SOL     OW  988   2.791   2.455   3.789  0.4694  0.3398 -0.0847
  300SOL    HW1  989   2.875   2.447   3.745 -0.9682  0.3367 -3.0601
  300SOL    HW2  990   2.734   2.393   3.744 -1.7613  2.1039  0.1012
  301SOL     OW  991   2.812   0.664   3.515 -0.2282  0.2907 -0.1597
  301SOL    HW1  992   2.766   0.704   3.441 -2.1970 -1.2545  0.1263
  301SOL    HW2  993   2.777   0.709   3.592 -1.0876 -0.6983  0.0442
  302SOL     OW  994   1.556   0.395   3.365 -0.3000 -0.7181 -0.0229
  302SOL    HW1  995   1.507   0.469   3.402  3.0097  1.4906  0.3824
  302SOL    HW2  996   1.595   0.431   3.285  0.0498 -2.5892 -0.7319
  303SOL     OW  997   1.303   2.201   1.505  0.0579 -0.3103  0.1049
  303SOL    HW1  998   1.230   2.210   1.567  2.0571  0.9096  2.4236
  303SOL    HW2  999   1.323   2.108   1.505  0.0442 -0.3290  1.3571
  304SOL     OW 1000   2.688   2.333   0.798  0.0095 -0.0134  0.3553
  304SOL    HW1 1001   2.720   2.343   0.887  0.9935 -1.2309  0.1656
  304SOL    HW2 1002   2.736   2.399   0.747  0.3143 -0.1067  0.5215
  305SOL     OW 1003   1.460   2.407   3.125 -0.0397 -1.0604  0.1690
  305SOL    HW1 1004   1.467   2.419   3.220 -1.1855 -0.6299  0.2181
  305SOL    HW2 1005   1.367   2.392   3.110 -0.2762  1.2514 -1.1442
  306SOL     OW 1006   0.398   0.475   0.108 -0.2325 -0.0087  0.4783
  306SOL    HW1 1007   0.351   0.416   0.048  0.0279 -0.3400  0.5938
  306SOL    HW2 1008   0.409   0.423   0.187  1.4197 -0.3833  0.0309
  307SOL     OW 1009   0.992   2.335   3.055  0.1602 -0.2115 -0.2188
  307SOL    HW1 1010   1.063   2.300   3.109 -0.4432  1.7328  2.0036
  307SOL    HW2 1011   0.918   2.278   3.072  0.2399 -0.1772  0.2656
  308SOL     OW 1012   3.259   0.734   0.207 -0.2407 -0.2798 -0.1940
  308SOL    HW1 1013   3.292   0.785   0.281 -1.5627  0.1505  0.1163
  308SOL    HW2 1014   3.226   0.799   0.145 -1.6292 -0.7189  0.0549
  309SOL     OW 1015   1.787   1.820   0.118 -0.0269 -0.6844 -0.8335
  309SOL    HW1 1016   1.698   1.802   0.088 -0.1184 -0.4315 -0.7179
  309SOL    HW2 1017   1.792   1.778   0.204  0.9652 -3.3797 -2.1270
  310SOL     OW 1018   3.147   2.676   2.009  0.5769 -0.6323  0.5579
  310SOL    HW1 1019   3.144   2.768   2.036 -0.8124 -0.1942 -0.8728
  310SOL    HW2 1020   3.084   2.632   2.066  0.7458 -0.5662  0.7971
  311SOL     OW 1021   1.615   0.899   3.713 -0.6708  0.1890  0.1332
  311SOL    HW1 1022   1.674   0.970   3.737 -1.6156  0.3540  2.1750
  311SOL    HW2 1023   1.612   0.901   3.617  2.4651  0.2640 -0.0692
  312SOL     OW 1024   1.794   2.832   3.315  0.4289 -0.1916 -0.0589
  312SOL    HW1 1025   1.788   2.914   3.267  1.6210 -0.9581 -1.6311
  312SOL    HW2 1026   1.786   2.857   3.407 -0.6403  1.4911 -0.5684
  313SOL     OW 1027   0.519   1.238   0.066  0.1256  0.5442  0.1819
  313SOL    HW1 1028   0.595   1.184   0.085 -1.0534 -1.3185 -0.0864
  313SOL    HW2 1029   0.499   1.222  -0.026 -0.7773  0.7125  0.3316
  314SOL     OW 1030   0.257   1.260   0.879 -0.6362 -0.0164 -0.3617
  314SOL    HW1 1031   0.191   1.200   0.914 -0.6522  0.2624  0.0958
  314SOL    HW2 1032   0.238   1.264   0.785 -0.5273 -0.8588 -0.4318
  315SOL     OW 1033   1.481   0.910   1.817  0.4055  0.5214 -0.1215
  315SOL    HW1 1034   1.558   0.882   1.766 -0.1470  0.9124 -1.1857
  315SOL    HW2 1035   1.518   0.962   1.889  1.4268 -2.2265  1.5180
  316SOL     OW 1036   1.493   2.659   2.958 -0.1040  0.5582 -0.0613
  316SOL    HW1 1037   1.516   2.570   2.985  1.3304  1.3479  1.5524
  316SOL    HW2 1038   1.413   2.679   3.007 -1.5089 -0.4454 -1.8488
  317SOL     OW 1039   1.426   0.999   0.287 -0.6318  0.1999 -0.6816
  317SOL    HW1 1040   1.454   0.908   0.295  0.6642  0.6742  0.4116
  317SOL    HW2 1041   1.451   1.024   0.198  2.2785  0.4958  0.1130
  318SOL     OW 1042   3.237   3.538   2.507  0.7358  0.0515  0.4693
  318SOL    HW1 1043   3.313   3.500   2.551  1.3037  1.6108  0.8675
  318SOL    HW2 1044   3.188   3.583   2.576 -0.6338 -1.0081  0.2400
  319SOL     OW 1045   2.376   1.611   2.124 -0.2951 -0.2313 -0.1827
  319SOL    HW1 1046   2.441   1.573   2.182 -0.8269 -1.2148 -0.2023
  319SOL    HW2 1047   2.405   1.586   2.036 -0.3487 -0.1182 -0.2324
  320SOL     OW 1048   1.408   3.620   3.140 -0.0394  0.2315  0.1055
  320SOL    HW1 1049   1.405   3.525   3.142 -0.1781  0.2201 -0.4136
  320SOL    HW2 1050   1.328   3.645   3.093  1.3892  0.4773 -2.3766
  321SOL     OW 1051   3.202   3.776   1.454 -0.1558 -0.3831  0.3038
  321SOL    HW1 1052   3.168   3.781   1.365 -0.7274 -0.2059  0.5235
  321SOL    HW2 1053   3.241   3.689   1.460  0.4866 -0.1462 -0.3190
  322SOL     OW 1054   1.216   2.361   1.264 -0.4072 -0.2465 -0.4871
  322SOL    HW1 1055   1.297   2.397   1.227 -0.5758 -0.0575 -0.6779
  322SOL    HW2 1056   1.235   2.349   1.357  0.0294 -0.7438 -0.6347
  323SOL     OW 1057   3.133   3.013   3.843 -0.4825  0.2876  0.1318
  323SOL    HW1 1058   3.201   2.950   3.818  1.1013  0.9292  2.4764
  323SOL    HW2 1059   3.090   3.036   3.760  1.5239 -0.8607 -1.3344
  324SOL     OW 1060   2.870   0.752   0.007 -0.2594 -0.1466 -0.0091
  324SOL    HW1 1061   2.776   0.733   0.006 -0.4463  0.6639 -1.8384
  324SOL    HW2 1062   2.875   0.847   0.015  0.3639 -0.0913 -0.9668
  325SOL     OW 1063   3.883   0.558   0.308  0.0909 -0.6977  0.0784
  325SOL    HW1 1064   3.893   0.595   0.395  0.7786 -0.8012  0.0492
  325SOL    HW2 1065   3.801   0.594   0.275  0.8025  0.9243 -0.0130
  326SOL     OW 1066   2.730   2.462   2.520  0.0354  0.5663 -0.3166
  326SOL    HW1 1067   2.766   2.551   2.514 -0.7454  1.0991  1.8206
  326SOL    HW2 1068   2.772   2.426   2.598 -1.8217  0.1505  0.5330
  327SOL     OW 1069   1.245   1.011   2.313  0.3208 -0.3814  0.0204
  327SOL    HW1 1070   1.242   1.097   2.355 -1.0707 -0.9248  1.0782
  327SOL    HW2 1071   1.325   1.014   2.260  1.7352  0.6255  2.0732
  328SOL     OW 1072   2.292   2.282   2.298  0.1202  0.0170 -0.0440
  328SOL    HW1 1073   2.215   2.246   2.342  0.3028  0.5841  0.7398
  328SOL    HW2 1074   2.323   2.210   2.243 -1.3896  0.0062 -0.9440
  329SOL     OW 1075   2.930   1.842   0.067  0.2531  0.2811 -0.4502
  329SOL    HW1 1076   2.954   1.874   0.154 -0.7385  0.4214 -0.2173
  329SOL    HW2 1077   3.007   1.795   0.037  0.4199 -0.2529  0.7453
  330SOL     OW 1078   2.211   3.810   1.718 -0.3922  0.2517  0.2904
  330SOL    HW1 1079   2.190   3.751   1.791 -2.5780  3.0444  2.1440
  330SOL    HW2 1080   2.126   3.827   1.677  0.4252  0.8900 -1.1768
  331SOL     OW 1081   3.398   0.571   2.877 -0.3370 -0.2660 -0.0388
  331SOL    HW1 1082   3.456   0.599   2.948 -0.1374 -1.1042  0.1341
  331SOL    HW2 1083   3.454   0.571   2.799  0.0536 -1.6151  0.2260
  332SOL     OW 1084   1.629   3.736   1.638 -0.5201 -0.0622  0.1263
  332SOL    HW1 1085   1.576   3.658   1.655 -0.8694  0.1877  0.1752
  332SOL    HW2 1086   1.578   3.808   1.672 -0.4334  0.2508 -0.3914
  333SOL     OW 1087   2.670   1.907   0.160  0.2238 -0.1468 -0.1520
  333SOL    HW1 1088   2.752   1.872   0.125 -1.4924 -0.9852 -3.8950
  333SOL    HW2 1089   2.626   1.830   0.197  0.3177 -0.0843  0.0900
  334SOL     OW 1090   3.313   2.653   0.960 -0.2367 -0.1650  0.5235
  334SOL    HW1 1091   3.314   2.582   1.024 -0.8146 -0.3090  0.3832
  334SOL    HW2 1092   3.223   2.654   0.928 -0.0163  0.0754 -0.0981
  335SOL     OW 1093   0.136   2.851   1.776  0.0447 -0.2004 -0.2761
  335SOL    HW1 1094   0.190   2.788   1.729 -0.4129  0.3756 -1.6513
  335SOL    HW2 1095   0.198   2.903   1.827  0.4413 -1.5860  0.7199
  336SOL     OW 1096   0.777   0.594   1.851  0.1729  0.1084 -0.1277
  336SOL    HW1 1097   0.848   0.646   1.887 -0.2806  0.4363  0.2907
  336SOL    HW2 1098   0.732   0.557   1.927 -0.3284  0.1936 -0.3783
  337SOL     OW 1099   0.443   1.088   1.407 -0.1952  0.4930 -0.0216
  337SOL    HW1 1100   0.445   1.141   1.327  0.1684  0.9983  0.3160
  337SOL    HW2 1101   0.507   1.018   1.391  1.8703  2.0732  0.8079
  338SOL     OW 1102   2.662   0.201   2.004  0.2704 -0.2319 -0.5536
  338SOL    HW1 1103   2.596   0.229   1.941 -0.3109  1.9808  0.8972
  338SOL    HW2 1104   2.668   0.106   1.992 -3.4361 -0.6411 -0.5433
  339SOL     OW 1105   0.202   1.508   0.720 -0.0224 -0.3812 -0.2479
  339SOL    HW1 1106   0.141   1.476   0.654 -1.3382  0.3353  0.5620
  339SOL    HW2 1107   0.247   1.581   0.677  1.3324 -1.7976 -1.3261
  340SOL     OW 1108   3.156   0.538   1.182 -0.2934  0.3335 -0.8826
  340SOL    HW1 1109   3.159   0.489   1.100  0.6084 -1.2447  0.0450
  340SOL    HW2 1110   3.244   0.572   1.193 -0.1460 -0.2680 -0.1169
  341SOL     OW 1111   0.592   2.910   1.397  0.0799 -0.2979  0.5620
  341SOL    HW1 1112   0.599   2.918   1.302  0.1079  1.1445  0.6655
  341SOL    HW2 1113   0.575   2.817   1.412 -2.3647 -0.1868 -1.0066
  342SOL     OW 1114   3.596   1.182   1.121  0.3771  0.1632 -0.1360
  342SOL    HW1 1115   3.657   1.145   1.058  2.3578  0.7094  1.3513
  342SOL    HW2 1116   3.570   1.266   1.083  0.3425 -0.1969 -0.9136
  343SOL     OW 1117   0.354   3.100   2.423 -0.3287 -0.2459 -0.2318
  343SOL    HW1 1118   0.279   3.159   2.427  0.9068  1.3135  1.3343
  343SOL    HW2 1119   0.353   3.066   2.333 -1.7393  1.2634 -0.8395
  344SOL     OW 1120   1.693   2.998   3.555  0.1354  0.4351  0.1873
  344SOL    HW1 1121   1.646   2.965   3.632  1.0960  1.0016  1.0416
  344SOL    HW2 1122   1.746   3.071   3.588  1.9033 -0.3936 -0.6438
  345SOL     OW 1123   0.697   1.034   2.751 -0.2723 -0.7213  0.3189
  345SOL    HW1 1124   0.687   1.120   2.710 -1.9282 -1.3038 -0.6007
  345SOL    HW2 1125   0.783   1.037   2.792 -0.2170  1.3084  0.1689
  346SOL     OW 1126   2.497   3.729   3.384  0.1125  0.1578 -0.0330
  346SOL    HW1 1127   2.576   3.742   3.437 -0.1353 -0.0177  0.3907
  346SOL    HW2 1128   2.527   3.683   3.306  0.0906 -2.1670  1.2474
  347SOL     OW 1129   0.143   3.435   1.835  0.3494  0.2714 -0.4765
  347SOL    HW1 1130   0.136   3.413   1.742  0.9558 -0.9837 -0.2516
  347SOL    HW2 1131   0.090   3.514   1.845  0.2169  0.3878 -1.8696
  348SOL     OW 1132   2.220   0.301   3.127 -0.6892  0.2389 -0.0093
  348SOL    HW1 1133   2.215   0.261   3.041 -1.3004  0.2368  0.0220
  348SOL    HW2 1134   2.183   0.388   3.116 -0.6124  0.3016  0.2115
  349SOL     OW 1135   1.959   1.166   0.122 -0.5990  0.0577  0.1154
  349SOL    HW1 1136   2.033   1.120   0.161 -1.2332 -0.3544  0.8590
  349SOL    HW2 1137   1.890   1.160   0.187 -1.0981  0.9775 -0.3064
  350SOL     OW 1138   1.140   3.474   2.685  0.4648  0.4624 -0.1757
  350SOL    HW1 1139   1.149   3.471   2.590  1.6767 -0.8031 -0.0541
  350SOL    HW2 1140   1.057   3.521   2.700  0.9356  1.9054 -1.7875
  351SOL     OW 1141   0.897   2.635   2.469  0.4396  0.3789  0.0264
  351SOL    HW1 1142   0.987   2.643   2.499 -0.1321 -0.4138  2.0802
  351SOL    HW2 1143   0.864   2.725   2.469  2.1704  1.2612 -4.2884
  352SOL     OW 1144   1.304   0.041   2.989  0.1835  0.6513 -0.1516
  352SOL    HW1 1145   1.289   0.090   2.909 -0.0683 -0.1129 -0.5776
  352SOL    HW2 1146   1.285  -0.050   2.966  0.0094  0.4372  0.7990
  353SOL     OW 1147   1.440   3.628   1.389  0.2610 -0.5305  0.6011
  353SOL    HW1 1148   1.349   3.599   1.382 -0.0719  0.5413  0.2908
  353SOL    HW2 1149   1.472   3.630   1.299  0.1651  0.3644  0.5736
  354SOL     OW 1150   0.343   1.735   0.628 -0.2060  0.1571 -0.4409
  354SOL    HW1 1151   0.304   1.726   0.541 -1.3397 -0.4625  0.0992
  354SOL    HW2 1152   0.371   1.826   0.632 -0.7450  0.3721 -1.2191
  355SOL     OW 1153   2.677   2.240   3.664 -0.2106 -0.6171  1.0046
  355SOL    HW1 1154   2.620   2.185   3.719 -1.6352 -0.4093 -0.1994
  355SOL    HW2 1155   2.746   2.180   3.635 -1.1454 -1.5288  0.5729
  356SOL     OW 1156   1.471   0.967   2.134 -0.6056  0.2178 -0.8119
  356SOL    HW1 1157   1.543   0.965   2.198 -1.1914  0.5312 -0.1366
  356SOL    HW2 1158   1.469   1.058   2.103  0.4762 -0.1968 -2.2221
  357SOL     OW 1159   1.498   0.375   2.670  0.3181  0.3843 -0.0255
  357SOL    HW1 1160   1.588   0.351   2.644 -0.4531 -0.3504 -2.3318
  357SOL    HW2 1161   1.467   0.429   2.598 -1.8125 -1.2265 -0.4120
  358SOL     OW 1162   1.521   1.028   2.964  0.4372  0.2932 -0.7413
  358SOL    HW1 1163   1.427   1.032   2.946 -0.3329 -2.1441  1.9355
  358SOL    HW2 1164   1.544   1.116   2.994 -1.5515  0.3879  0.6926
  359SOL     OW 1165   3.739   3.447   0.616  0.3154  0.1706  0.8213
  359SOL    HW1 1166   3.666   3.445   0.679 -1.1285  1.8370 -0.6692
  359SOL    HW2 1167   3.773   3.537   0.622 -0.8694  0.8988 -1.7385
  360SOL     OW 1168   3.303   3.159   1.014  0.1569  0.3890 -0.1155
  360SOL    HW1 1169   3.226   3.211   1.034 -1.6449 -2.5639  1.4314
  360SOL    HW2 1170   3.286   3.123   0.927 -0.7280 -0.9732  0.5879
  361SOL     OW 1171   0.683   1.627   2.214  0.0771 -0.0200 -0.1230
  361SOL    HW1 1172   0.644   1.695   2.160  1.1902 -1.1049 -2.4403
  361SOL    HW2 1173   0.776   1.630   2.192  0.4096 -1.1821  1.0046
  362SOL     OW 1174   3.667   2.572   3.517 -0.2609 -0.3820 -0.0027
  362SOL    HW1 1175   3.691   2.552   3.426 -1.6318  1.9740 -0.9906
  362SOL    HW2 1176   3.669   2.668   3.521  1.2030 -0.4325  2.9201
  363SOL     OW 1177   2.856   3.239   3.775 -0.6558  0.2472 -0.2277
  363SOL    HW1 1178   2.887   3.297   3.845 -2.0418  0.5346  0.1775
  363SOL    HW2 1179   2.899   3.272   3.696  1.1769 -0.2699  0.4945
  364SOL     OW 1180   2.609   1.146   2.521 -0.8105  0.3187 -0.1439
  364SOL    HW1 1181   2.592   1.200   2.599  1.8121  0.1453  0.6464
  364SOL    HW2 1182   2.643   1.208   2.456  1.9165 -0.2198  0.6631
  365SOL     OW 1183   1.145   2.959   0.968  0.0189  0.5076 -0.3338
  365SOL    HW1 1184   1.066   2.997   0.930  0.3051  0.7238 -0.7250
  365SOL    HW2 1185   1.168   3.019   1.039 -0.2512  0.3616 -0.1210
  366SOL     OW 1186   2.936   0.146   1.719  0.2951 -0.1371  0.2516
  366SOL    HW1 1187   2.934   0.087   1.644 -0.5513 -0.8533  0.8127
  366SOL    HW2 1188   3.025   0.180   1.721  1.5160 -3.1006  1.1927
  367SOL     OW 1189   2.722   0.506   3.816  0.8884 -0.4382 -0.2640
  367SOL    HW1 1190   2.710   0.547   3.902 -1.3921  2.7499 -1.9062
  367SOL    HW2 1191   2.688   0.418   3.827  0.7995 -0.1821  2.1111
  368SOL     OW 1192   3.382   0.459   1.688 -0.1694  0.1997 -0.3041
  368SOL    HW1 1193   3.411   0.477   1.778  1.1152  0.6730 -0.7830
  368SOL    HW2 1194   3.307   0.400   1.698 -0.0787  0.2826  1.0774
  369SOL     OW 1195   3.120   3.660   3.082 -0.7223 -0.2853 -0.4143
  369SOL    HW1 1196   3.164   3.742   3.063 -0.3325  0.6864  3.8592
  369SOL    HW2 1197   3.027   3.682   3.081 -0.8936 -0.8060 -2.9538
  370SOL     OW 1198   1.676   1.158   1.136  0.0151  0.5391  0.4906
  370SOL    HW1 1199   1.761   1.188   1.104  1.1294 -1.9486  0.8586
  370SOL    HW2 1200   1.697   1.084   1.193 -2.3743  0.3084  1.1675
  371SOL     OW 1201   3.771   1.426   0.119  0.1423 -0.1871 -0.4594
  371SOL    HW1 1202   3.794   1.360   0.053  2.1977 -0.3317  0.3576
  371SOL    HW2 1203   3.743   1.375   0.195  1.9721 -0.1646  0.2595
  372SOL     OW 1204   1.740   1.885   2.615 -0.2567 -0.3918 -0.5305
  372SOL    HW1 1205   1.716   1.832   2.691 -0.5501  0.3983 -0.0645
  372SOL    HW2 1206   1.677   1.957   2.615 -1.3715 -1.2925 -2.5326
  373SOL     OW 1207   0.125   2.381   1.028 -0.2091 -0.3844  0.9823
  373SOL    HW1 1208   0.140   2.291   1.055 -0.1594 -0.5097  0.5365
  373SOL    HW2 1209   0.032   2.385   1.008 -0.0019 -0.6178 -0.0462
  374SOL     OW 1210   0.001   1.403   2.847  0.5400  0.2597  0.5153
  374SOL    HW1 1211  -0.008   1.454   2.927  0.0176 -0.4231  0.9024
  374SOL    HW2 1212   0.038   1.319   2.875  1.4574  0.4354 -0.1217
  375SOL     OW 1213   3.745   3.830   3.646  0.3353  0.2475 -0.1657
  375SOL    HW1 1214   3.723   3.903   3.588  2.3537  1.3699  0.3767
  375SOL    HW2 1215   3.669   3.821   3.703 -0.7787  0.5537 -1.5611
  376SOL     OW 1216   2.621   2.463   3.463  0.0397  0.2766  0.1585
  376SOL    HW1 1217   2.538   2.508   3.447 -0.3627 -1.0246 -1.6779
  376SOL    HW2 1218   2.603   2.403   3.535 -1.1160 -1.0911 -1.1902
  377SOL     OW 1219   0.455   3.463   1.364 -0.0142  0.0804 -0.0513
  377SOL    HW1 1220   0.519   3.430   1.302 -0.5457  0.6673 -0.9293
  377SOL    HW2 1221   0.504   3.473   1.446  1.1702  1.0712 -0.8392
  378SOL     OW 1222   2.068   3.124   1.032 -0.0398 -0.2444 -0.0200
  378SOL    HW1 1223   1.998   3.061   1.014 -0.6666  0.2588  0.5679
  378SOL    HW2 1224   2.036   3.173   1.108  0.5289  0.6297 -0.3305
  379SOL     OW 1225   3.761   3.186   0.481 -0.6204 -0.3443  0.3540
  379SOL    HW1 1226   3.758   3.271   0.526 -0.6972  0.0169 -0.3273
  379SOL    HW2 1227   3.672   3.172   0.449 -0.3569 -0.1554 -0.4896
  380SOL     OW 1228   1.486   2.942   3.399  0.3723  0.3383  0.6276
  380SOL    HW1 1229   1.419   2.951   3.467  0.8142  1.6312  0.9202
  380SOL    HW2 1230   1.562   2.988   3.434  1.2463 -0.6203  0.0588
  381SOL     OW 1231   1.900   3.486   2.689 -0.5669  0.1236 -0.4968
  381SOL    HW1 1232   1.836   3.464   2.756 -0.2539  2.4699  0.6764
  381SOL    HW2 1233   1.861   3.454   2.607 -2.7874  0.6110  0.3062
  382SOL     OW 1234   2.576   2.896   2.967 -0.2449 -0.2342  0.2157
  382SOL    HW1 1235   2.599   2.829   2.902 -0.2028  1.3737 -1.5071
  382SOL    HW2 1236   2.660   2.934   2.993 -0.2733 -0.7693  1.1647
  383SOL     OW 1237   3.356   0.895   2.292 -0.0914 -0.1759 -0.6095
  383SOL    HW1 1238   3.392   0.983   2.277  0.2326 -0.2030 -0.0452
  383SOL    HW2 1239   3.285   0.887   2.228  0.0482  0.3945 -0.8478
  384SOL     OW 1240   3.618   1.044   1.857  0.1514  0.4944  0.1125
  384SOL    HW1 1241   3.688   0.985   1.829 -0.5547  0.3598 -1.4369
  384SOL    HW2 1242   3.552   0.986   1.896  0.6538  0.5684  1.1008
  385SOL     OW 1243   2.650   3.026   1.540 -0.2534 -0.0292  0.5094
  385SOL    HW1 1244   2.703   3.099   1.510 -0.0668 -0.9359 -1.5868
  385SOL    HW2 1245   2.588   3.011   1.468 -0.7073 -1.4945  1.1678
  386SOL     OW 1246   1.669   3.400   2.805  0.1650  0.0798 -0.3906
  386SOL    HW1 1247   1.618   3.319   2.800 -1.0461  0.7716  0.0918
  386SOL    HW2 1248   1.603   3.468   2.821  1.3064  0.9246  1.0220
  387SOL     OW 1249   1.236   0.380   2.504 -0.1139 -0.7952  0.2426
  387SOL    HW1 1250   1.212   0.468   2.532  0.3070 -0.7088  0.3480
  387SOL    HW2 1251   1.170   0.323   2.543  0.8463 -0.7551  2.0339
  388SOL     OW 1252   0.110   0.021   0.722  0.1585 -0.2669 -0.1872
  388SOL    HW1 1253   0.168   0.080   0.769 -0.0520 -0.4514  0.3111
  388SOL    HW2 1254   0.051  -0.014   0.789  1.9323 -3.0818  0.0513
  389SOL     OW 1255   0.194   0.295   1.478 -0.2451 -0.0451 -0.0871
  389SOL    HW1 1256   0.177   0.205   1.449 -0.2502 -0.3771  0.9087
  389SOL    HW2 1257   0.287   0.297   1.500 -0.2588  0.1727 -0.0433
  390SOL     OW 1258   3.781   0.347   2.155  0.7001  0.3838  0.1715
  390SOL    HW1 1259   3.765   0.255   2.136  0.9870  0.2763  0.4392
  390SOL    HW2 1260   3.695   0.383   2.175  0.5462  0.2412 -0.2097
  391SOL     OW 1261   0.714   2.048   2.770  0.2121  0.1562 -0.5350
  391SOL    HW1 1262   0.785   2.092   2.723  0.5003 -1.2107 -1.4734
  391SOL    HW2 1263   0.681   1.983   2.707 -1.6251  0.4909  0.0092
  392SOL     OW 1264   3.549   3.021   0.391 -0.1679 -0.3575 -0.1640
  392SOL    HW1 1265   3.553   3.082   0.317 -1.1051  0.0294  0.0905
  392SOL    HW2 1266   3.464   2.978   0.383  0.6104 -1.8964 -0.5221
  393SOL     OW 1267   0.690   1.005   2.239  0.2277  0.0412 -0.7208
  393SOL    HW1 1268   0.623   0.998   2.170 -0.6866 -1.4248  0.2588
  393SOL    HW2 1269   0.643   0.988   2.320  1.9088 -2.0232 -0.0757
  394SOL     OW 1270   3.504   3.107   1.953  0.6922 -0.2847 -0.3092
  394SOL    HW1 1271   3.579   3.097   2.012 -0.0573  1.5510  1.0417
  394SOL    HW2 1272   3.534   3.170   1.887  0.9564 -1.0559 -0.9525
  395SOL     OW 1273   3.249   1.735   3.636  0.2165 -0.2002 -0.2536
  395SOL    HW1 1274   3.178   1.798   3.625  0.3592 -0.0171 -0.1314
  395SOL    HW2 1275   3.312   1.757   3.567  0.2904 -0.1740 -0.1783
  396SOL     OW 1276   0.351   3.632   2.879  0.5514  0.2367 -0.0849
  396SOL    HW1 1277   0.401   3.551   2.893  0.2784  0.1251  0.2871
  396SOL    HW2 1278   0.272   3.603   2.833  1.9186  0.7402 -2.9648
  397SOL     OW 1279   1.636   1.051   2.383  0.6620  0.0448 -0.5574
  397SOL    HW1 1280   1.661   0.968   2.341 -0.8704 -0.0740 -1.3008
  397SOL    HW2 1281   1.691   1.056   2.461  1.0999 -1.4475 -0.7380
  398SOL     OW 1282   1.436   2.507   2.442  0.0699  0.4270 -1.3716
  398SOL    HW1 1283   1.504   2.571   2.421  0.0772  0.3445 -1.6055
  398SOL    HW2 1284   1.448   2.488   2.535 -1.0381  2.0822 -0.8509
  399SOL     OW 1285   1.237   1.223   1.649 -0.1675  0.1219 -0.0629
  399SOL    HW1 1286   1.310   1.228   1.710  0.3590 -1.9252 -0.4664
  399SOL    HW2 1287   1.193   1.141   1.670 -0.7043 -0.0266 -1.6247
  400SOL     OW 1288   3.595   3.849   2.980  0.3594  0.1300 -0.2095
  400SOL    HW1 1289   3.597   3.881   2.890  0.0398  1.5441  0.2622
  400SOL    HW2 1290   3.669   3.788   2.986  0.3894  0.0266 -1.4131
  401SOL     OW 1291   0.690   0.798   0.284 -0.0754 -0.1897  0.3891
  401SOL    HW1 1292   0.752   0.827   0.352 -1.5618 -0.7562  2.0591
  401SOL    HW2 1293   0.658   0.713   0.315 -2.6113  0.6329  0.2756
  402SOL     OW 1294   1.113   0.472   1.905  0.0169  0.1237 -0.4893
  402SOL    HW1 1295   1.194   0.512   1.874  0.0588  0.1511 -0.3428
  402SOL    HW2 1296   1.056   0.546   1.927  0.3154  0.1084  0.3664
  403SOL     OW 1297   0.898   0.312   2.512 -0.7271 -0.4551 -0.0546
  403SOL    HW1 1298   0.937   0.248   2.571 -0.4949  0.4860  0.8497
  403SOL    HW2 1299   0.846   0.368   2.569  1.4913  2.0287 -0.2852
  404SOL     OW 1300   1.020   2.396   1.613 -0.0043 -0.1188 -0.4478
  404SOL    HW1 1301   1.079   2.398   1.688  0.2709  4.5011 -0.5149
  404SOL    HW2 1302   0.932   2.401   1.651  0.0192  0.1551 -0.4323
  405SOL     OW 1303   0.327   3.812   1.176  0.9674 -0.2498 -0.1631
  405SOL    HW1 1304   0.281   3.745   1.228  0.4491 -1.0809 -1.6470
  405SOL    HW2 1305   0.407   3.769   1.147  0.5995 -0.2732 -1.1821
  406SOL     OW 1306   1.746   0.779   3.082  0.2284  0.1824 -0.6811
  406SOL    HW1 1307   1.697   0.707   3.122 -1.6957  1.7757 -0.0025
  406SOL    HW2 1308   1.824   0.787   3.137 -0.7213  0.1432  0.7218
  407SOL     OW 1309   2.785   1.557   1.768 -0.0446 -0.1363  0.1936
  407SOL    HW1 1310   2.743   1.623   1.713  0.3040  0.8510  1.0855
  407SOL    HW2 1311   2.804   1.485   1.708  0.8516  1.1307 -1.1224
  408SOL     OW 1312   1.763   2.472   1.470 -0.2368 -0.5437  0.4427
  408SOL    HW1 1313   1.743   2.380   1.455  0.3325 -1.1788  3.0351
  408SOL    HW2 1314   1.690   2.519   1.431 -1.0142 -2.1520 -0.1216
  409SOL     OW 1315   2.618   1.631   0.267  0.0289  0.3477  0.0469
  409SOL    HW1 1316   2.574   1.549   0.289 -0.1971  0.5457  0.3444
  409SOL    HW2 1317   2.707   1.621   0.301  0.3155 -0.1781 -0.8391
  410SOL     OW 1318   3.194   2.376   0.786 -0.6133 -0.2523 -0.8057
  410SOL    HW1 1319   3.203   2.453   0.730 -2.2359 -0.3855 -1.3084
  410SOL    HW2 1320   3.284   2.346   0.800 -0.0286  1.0675 -1.5232
  411SOL     OW 1321   1.350   0.760   0.982 -0.4394 -0.3364 -0.3820
  411SOL    HW1 1322   1.277   0.806   0.942 -0.4337 -1.4419 -1.7561
  411SOL    HW2 1323   1.422   0.823   0.981 -1.2899  0.7082  0.8468
  412SOL     OW 1324   3.158   3.756   1.165 -0.1758 -0.3919 -0.0534
  412SOL    HW1 1325   3.098   3.776   1.093  0.6142 -1.4331 -1.0230
  412SOL    HW2 1326   3.238   3.727   1.123  0.6542 -0.0774  1.2466
  413SOL     OW 1327   3.733   2.343   1.113 -0.0566  0.7551 -0.1337
  413SOL    HW1 1328   3.740   2.292   1.193  0.9964  0.0558 -0.6500
  413SOL    HW2 1329   3.700   2.428   1.141  1.6277  0.9973  1.2385
  414SOL     OW 1330   2.314   1.733   2.957  0.0351  0.8056  0.3083
  414SOL    HW1 1331   2.324   1.787   2.878  1.6381 -1.3616 -1.0770
  414SOL    HW2 1332   2.395   1.748   3.006 -0.0407  0.5739  0.5047
  415SOL     OW 1333   2.999   1.491   0.218  0.6646  0.5748 -0.4380
  415SOL    HW1 1334   2.942   1.550   0.267  0.6611 -0.7480  1.2184
  415SOL    HW2 1335   2.962   1.490   0.130 -3.2961 -1.8739  1.0222
  416SOL     OW 1336   0.764   2.190   3.037 -0.5216  0.3235  0.3014
  416SOL    HW1 1337   0.717   2.137   2.973 -0.9699 -0.8335  1.5485
  416SOL    HW2 1338   0.761   2.139   3.117  0.1183  1.6912  1.2313
  417SOL     OW 1339   1.487   2.799   0.698  0.6504 -0.3750 -0.1167
  417SOL    HW1 1340   1.399   2.784   0.733  0.9291 -0.3493  0.5971
  417SOL    HW2 1341   1.479   2.776   0.605 -0.7865  2.1412 -0.7010
  418SOL     OW 1342   1.583   1.806   3.152  0.2420 -0.7395  0.0629
  418SOL    HW1 1343   1.565   1.788   3.244  0.7022 -1.0092  0.1056
  418SOL    HW2 1344   1.590   1.901   3.147 -0.0926 -0.7034  0.2464
  419SOL     OW 1345   2.893   2.148   3.414  0.4742 -0.1027  0.8590
  419SOL    HW1 1346   2.985   2.155   3.389  0.1863 -0.4179 -0.3169
  419SOL    HW2 1347   2.861   2.238   3.416  0.8444  0.0241  1.4722
  420SOL     OW 1348   0.050   3.229   0.846  0.4054  0.2356 -0.5999
  420SOL    HW1 1349  -0.019   3.163   0.852  1.5487 -0.8907  0.8863
  420SOL    HW2 1350   0.005   3.309   0.819 -1.6697 -0.1901  1.3419
  421SOL     OW 1351   0.219   2.850   2.744 -0.1491 -0.0385 -0.3507
  421SOL    HW1 1352   0.308   2.870   2.714 -0.3923  0.3519 -0.8309
  421SOL    HW2 1353   0.230   2.774   2.801  0.5887  0.4408  0.1716
  422SOL     OW 1354   0.333   2.430   1.231 -0.0849  0.0478 -0.0834
  422SOL    HW1 1355   0.420   2.428   1.190 -0.1751 -0.4029 -0.2561
  422SOL    HW2 1356   0.272   2.420   1.158 -0.3513  1.7149 -0.1385
  423SOL     OW 1357   0.901   2.179   1.878 -1.0523 -0.4586 -0.7328
  423SOL    HW1 1358   0.833   2.243   1.856 -0.2205  1.3335  1.5561
  423SOL    HW2 1359   0.870   2.137   1.958 -1.1112 -2.2506 -1.6641
  424SOL     OW 1360   3.508   2.929   3.286 -0.2501  0.5197  0.2711
  424SOL    HW1 1361   3.419   2.943   3.319 -0.9169 -0.6379 -0.9544
  424SOL    HW2 1362   3.536   3.016   3.257 -1.3435  0.7486 -0.1631
  425SOL     OW 1363   2.827   2.740   2.456  0.1313 -0.1689  0.2465
  425SOL    HW1 1364   2.891   2.808   2.475 -0.2656 -0.2080  1.8263
  425SOL    HW2 1365   2.757   2.786   2.409  0.9442  0.0056 -0.8535
  426SOL     OW 1366   2.749   0.957   1.666 -0.0879 -0.1023  0.0069
  426SOL    HW1 1367   2.843   0.954   1.652 -0.0048  0.0540  0.5172
  426SOL    HW2 1368   2.736   1.031   1.726 -0.4532 -0.6238  0.5740
  427SOL     OW 1369   2.212   2.767   1.928 -0.0518 -0.0132 -0.0936
  427SOL    HW1 1370   2.200   2.746   1.836  1.0016  0.5949 -0.3795
  427SOL    HW2 1371   2.210   2.682   1.973  3.6353 -0.8066 -1.1544
  428SOL     OW 1372   1.203   2.196   3.814  0.1542  0.1812  0.0025
  428SOL    HW1 1373   1.150   2.144   3.753  0.6667 -0.0007 -0.2898
  428SOL    HW2 1374   1.151   2.199   3.894 -0.2651 -0.0616 -0.2583
  429SOL     OW 1375   1.652   1.873   1.770 -0.3981 -0.3575  0.6728
  429SOL    HW1 1376   1.668   1.785   1.736 -0.6018  0.1526 -0.8577
  429SOL    HW2 1377   1.713   1.882   1.843  1.6491 -0.8126 -0.8708
  430SOL     OW 1378   1.787   2.233   2.393 -0.0202 -0.8233  0.4593
  430SOL    HW1 1379   1.725   2.297   2.357  0.8817 -0.8534 -1.2189
  430SOL    HW2 1380   1.732   2.172   2.442 -1.1026  0.1611  0.5211
  431SOL     OW 1381   1.937   1.733   1.673 -0.7095  0.0743  0.1035
  431SOL    HW1 1382   1.964   1.777   1.593 -0.4174  0.0245  0.1734
  431SOL    HW2 1383   1.987   1.777   1.743 -0.5829 -0.2142  0.1985
  432SOL     OW 1384   0.204   2.759   3.767 -0.2768  0.2795 -0.0063
  432SOL    HW1 1385   0.134   2.698   3.791 -1.3079  0.5424 -2.0377
  432SOL    HW2 1386   0.176   2.793   3.681  2.0406  0.8997 -0.5689
  433SOL     OW 1387   0.113   3.472   0.406  0.4777 -0.3800 -0.3450
  433SOL    HW1 1388   0.167   3.394   0.420 -0.3774 -1.0880 -0.8932
  433SOL    HW2 1389   0.113   3.516   0.491  2.3501 -0.0563 -0.4658
  434SOL     OW 1390   0.270   3.350   3.243  0.6638 -0.3639  0.5229
  434SOL    HW1 1391   0.232   3.350   3.331 -1.6706 -1.7029 -0.4122
  434SOL    HW2 1392   0.363   3.369   3.258  0.6469 -1.9187  3.4243
  435SOL     OW 1393   0.222   0.452   1.213 -0.6927  0.2520 -0.1567
  435SOL    HW1 1394   0.257   0.414   1.294 -1.5057  2.0992  1.1484
  435SOL    HW2 1395   0.214   0.546   1.233 -0.0830  0.9156 -2.7136
  436SOL     OW 1396   2.679   0.819   3.694  0.0622  0.0113 -0.3401
  436SOL    HW1 1397   2.603   0.793   3.643  0.1885 -0.7500 -0.1573
  436SOL    HW2 1398   2.650   0.896   3.743 -1.9234 -2.4466  2.7152
  437SOL     OW 1399   3.421   0.417   0.184  0.2468  0.4360  0.3453
  437SOL    HW1 1400   3.340   0.390   0.141  1.2417 -0.8367 -0.7975
  437SOL    HW2 1401   3.471   0.461   0.115  0.7774  0.7272  0.9069
  438SOL     OW 1402   0.937   1.199   2.580 -0.0414 -0.1969  0.3873
  438SOL    HW1 1403   0.970   1.233   2.663  1.3957 -2.9595  1.0706
  438SOL    HW2 1404   0.956   1.269   2.516 -1.7965  2.2842  2.3824
  439SOL     OW 1405   3.345   0.707   3.357  0.5339  0.4613 -0.9782
  439SOL    HW1 1406   3.282   0.769   3.393  1.2983  0.5569  0.2759
  439SOL    HW2 1407   3.318   0.694   3.266 -0.7223  1.2067 -0.7311
  440SOL     OW 1408   1.922   2.974   2.735 -0.6450  0.3640 -0.8557
  440SOL    HW1 1409   1.901   3.015   2.651 -0.2873  2.4381 -0.0107
  440SOL    HW2 1410   1.993   2.913   2.715 -1.2559  0.0610 -2.2042
  441SOL     OW 1411   1.480   1.817   2.386 -0.0964  0.1445 -0.6529
  441SOL    HW1 1412   1.567   1.778   2.392 -0.2784 -0.1063  0.6806
  441SOL    HW2 1413   1.479   1.883   2.456 -1.1246 -0.1881 -0.3356
  442SOL     OW 1414   1.275   0.920   1.631 -0.0581  0.4374 -0.3362
  442SOL    HW1 1415   1.300   0.902   1.540  0.4323 -1.9424  0.2005
  442SOL    HW2 1416   1.354   0.904   1.682 -1.0076 -1.0629  0.7613
  443SOL     OW 1417   0.199   0.729   1.493 -0.1241  0.2303 -0.0431
  443SOL    HW1 1418   0.215   0.742   1.400  0.3727  0.1766  0.0331
  443SOL    HW2 1419   0.104   0.738   1.503 -0.3173 -0.9173 -0.7278
  444SOL     OW 1420   2.822   0.210   2.853 -0.2815 -0.2124 -0.1398
  444SOL    HW1 1421   2.906   0.231   2.813 -1.3000 -0.8057 -2.8183
  444SOL    HW2 1422   2.836   0.126   2.898  0.1972 -1.2416 -2.0905
  445SOL     OW 1423   0.857   0.452   1.648 -0.2638 -0.4328  0.0393
  445SOL    HW1 1424   0.825   0.508   1.719  0.9513  0.6344 -0.2190
  445SOL    HW2 1425   0.860   0.510   1.572  0.6845 -0.9412 -0.3212
  446SOL     OW 1426   2.681   1.312   3.195 -0.0634 -0.3473 -0.5709
  446SOL    HW1 1427   2.589   1.310   3.169 -0.5747  0.3566  1.0937
  446SOL    HW2 1428   2.691   1.237   3.253 -0.1597  0.7843  0.9631
  447SOL     OW 1429   0.401   3.593   0.445 -0.3180 -0.3633  0.3412
  447SOL    HW1 1430   0.479   3.637   0.478 -0.6463 -0.9424  1.9736
  447SOL    HW2 1431   0.433   3.507   0.415 -0.5210 -1.3469  2.6975
  448SOL     OW 1432   2.861   3.660   1.841  0.4460  0.1852  0.2188
  448SOL    HW1 1433   2.901   3.717   1.776  1.0419  0.9363  1.2205
  448SOL    HW2 1434   2.822   3.588   1.790  1.6147  0.3143 -0.8898
  449SOL     OW 1435   0.723   3.782   1.724  0.2718  0.0724  0.7230
  449SOL    HW1 1436   0.762   3.696   1.740 -0.4992 -0.1411  1.5057
  449SOL    HW2 1437   0.691   3.810   1.809  1.6344  1.7145  0.7408
  450SOL     OW 1438   1.009   0.959   2.741  0.1231  0.2408  0.5778
  450SOL    HW1 1439   1.011   0.864   2.754 -0.3246  0.3813  1.8462
  450SOL    HW2 1440   0.995   0.970   2.647 -2.0092 -0.9971  0.6699
  451SOL     OW 1441   2.842   2.363   0.345 -0.2003 -0.1107  0.2202
  451SOL    HW1 1442   2.820   2.416   0.269 -0.9909  0.4309  0.8009
  451SOL    HW2 1443   2.761   2.318   0.368  0.2230 -0.8603  0.2972
  452SOL     OW 1444   2.518   2.932   3.256 -0.3383  0.3630 -0.5687
  452SOL    HW1 1445   2.599   2.944   3.304 -1.6124 -0.6559  2.0238
  452SOL    HW2 1446   2.545   2.919   3.165  2.3593  0.1857  0.1925
  453SOL     OW 1447   2.726   0.443   2.793 -0.0070 -0.6984 -0.0655
  453SOL    HW1 1448   2.772   0.364   2.818  0.1383 -1.1554 -1.6762
  453SOL    HW2 1449   2.645   0.412   2.751 -0.2895  0.0183 -0.0709
  454SOL     OW 1450   3.487   3.360   0.155 -0.5876 -0.3288  0.1367
  454SOL    HW1 1451   3.406   3.368   0.204 -0.7365  1.6525 -0.3237
  454SOL    HW2 1452   3.553   3.400   0.212 -0.2636 -0.4258 -0.1666
  455SOL     OW 1453   0.351   1.491   3.534 -0.0042  0.3696 -0.5222
  455SOL    HW1 1454   0.269   1.498   3.485 -0.4497 -1.9473 -0.2268
  455SOL    HW2 1455   0.416   1.466   3.468 -0.3992 -1.7344 -0.1913
  456SOL     OW 1456   1.247   0.348   3.063  0.3026  0.2826  0.0699
  456SOL    HW1 1457   1.336   0.379   3.050  1.5685 -1.6718  3.1033
  456SOL    HW2 1458   1.251   0.253   3.047 -1.3136  0.1778  0.0470
  457SOL     OW 1459   3.512   0.296   1.346 -0.2518  0.0032  0.1347
  457SOL    HW1 1460   3.436   0.240   1.331 -0.1804  0.2157 -1.0822
  457SOL    HW2 1461   3.475   0.382   1.368 -0.3579 -0.4155  1.7608
  458SOL     OW 1462   0.664   1.468   0.101  0.5927 -0.2541 -0.3074
  458SOL    HW1 1463   0.688   1.460   0.194 -1.1870  0.0571  0.2167
  458SOL    HW2 1464   0.599   1.400   0.087 -0.9724  1.2377 -0.6509
  459SOL     OW 1465   3.541   2.244   0.003 -0.2443 -0.4668  0.4842
  459SOL    HW1 1466   3.609   2.263  -0.062 -0.0223  2.2641  1.3850
  459SOL    HW2 1467   3.467   2.212  -0.048  0.9093 -1.2349 -0.7694
  460SOL     OW 1468   0.521   1.849   2.869  0.3278 -0.1017  0.0844
  460SOL    HW1 1469   0.608   1.862   2.831 -0.1490  1.1435 -0.6573
  460SOL    HW2 1470   0.461   1.870   2.798 -0.5807 -0.3372  0.7697
  461SOL     OW 1471   3.710   3.761   2.529  0.0419 -0.1035 -0.4004
  461SOL    HW1 1472   3.686   3.707   2.453  0.2047 -1.5500  0.5351
  461SOL    HW2 1473   3.805   3.758   2.531  0.0483  0.1625 -0.2899
  462SOL     OW 1474   0.989   0.979   3.575  0.3463  0.2192  0.8167
  462SOL    HW1 1475   0.978   0.991   3.480  0.0663  0.9535  0.9287
  462SOL    HW2 1476   0.983   0.885   3.588  0.9309  0.0598  0.0389
  463SOL     OW 1477   1.588   1.980   0.290  0.4956  0.3033  0.1463
  463SOL    HW1 1478   1.674   2.010   0.322 -0.0852  2.0128  0.1938
  463SOL    HW2 1479   1.554   1.925   0.361  0.3665  1.8987  1.3694
  464SOL     OW 1480   3.654   0.683   1.714  0.0345 -0.1300  0.2324
  464SOL    HW1 1481   3.667   0.602   1.764 -1.2461 -0.6088 -0.1597
  464SOL    HW2 1482   3.583   0.662   1.653 -0.5075  1.3621  0.3008
  465SOL     OW 1483   2.733   1.024   1.198 -0.0782 -0.2550 -0.1841
  465SOL    HW1 1484   2.803   0.961   1.180 -1.3014 -1.4826 -0.7738
  465SOL    HW2 1485   2.673   1.015   1.124 -2.3122 -1.2896  1.6280
  466SOL     OW 1486   0.429   3.294   0.739  0.3155  0.1028  0.7324
  466SOL    HW1 1487   0.478   3.376   0.741  0.5720 -0.0512  1.6616
  466SOL    HW2 1488   0.440   3.258   0.828 -2.1882  0.4812  1.2644
  467SOL     OW 1489   0.589   2.290   2.231  0.0175  0.1925  0.5919
  467SOL    HW1 1490   0.539   2.235   2.170  2.7479 -0.1762 -1.5199
  467SOL    HW2 1491   0.646   2.228   2.276  0.9676  0.9219  0.4149
  468SOL     OW 1492   2.241   0.990   2.723  0.3155  0.2632  0.7860
  468SOL    HW1 1493   2.206   1.033   2.645  0.6489  2.8278  1.9602
  468SOL    HW2 1494   2.327   0.957   2.695 -0.4764 -0.8507 -0.4858
  469SOL     OW 1495   2.326   0.905   1.739  0.1221  0.0247  0.5202
  469SOL    HW1 1496   2.271   0.931   1.665 -0.1410 -1.2869  0.2361
  469SOL    HW2 1497   2.302   0.966   1.809 -1.0833  0.0081  0.1410
  470SOL     OW 1498   1.921   1.194   2.959  0.7613 -0.4334  0.0066
  470SOL    HW1 1499   1.871   1.114   2.939 -0.6496  0.1259  1.0813
  470SOL    HW2 1500   1.944   1.185   3.051 -0.5394  0.9495  0.4956
  471SOL     OW 1501   2.738   3.448   1.669  0.7507  0.0385  0.6344
  471SOL    HW1 1502   2.676   3.486   1.607  0.6111  0.5685  1.0839
  471SOL    HW2 1503   2.784   3.381   1.620  0.8638  0.6606 -0.1281
  472SOL     OW 1504   2.683   0.657   0.546  0.2396 -0.0548 -0.4781
  472SOL    HW1 1505   2.632   0.576   0.538  0.5092 -0.2875  0.0694
  472SOL    HW2 1506   2.693   0.670   0.641 -1.1998  1.5068 -0.4879
  473SOL     OW 1507   3.401   1.103   2.844 -0.3142 -0.0106 -0.2231
  473SOL    HW1 1508   3.463   1.056   2.900  1.4522  1.6682 -0.6417
  473SOL    HW2 1509   3.359   1.166   2.903 -0.4143 -0.0463 -0.2568
  474SOL     OW 1510   0.458   2.901   2.605 -0.0888  0.1235  0.7543
  474SOL    HW1 1511   0.460   2.819   2.557  0.1127  0.2255  0.5837
  474SOL    HW2 1512   0.449   2.968   2.538 -0.4641  0.2271  0.9104
  475SOL     OW 1513   0.371   1.180   1.875  0.0578 -0.0616 -0.1652
  475SOL    HW1 1514   0.455   1.223   1.891 -0.1882  0.9243 -1.3536
  475SOL    HW2 1515   0.393   1.107   1.816  0.2654 -0.6731  0.6557
  476SOL     OW 1516   0.837   0.772   2.180 -0.3138  0.0819  0.1473
  476SOL    HW1 1517   0.773   0.703   2.194 -0.1207 -0.6793 -2.2912
  476SOL    HW2 1518   0.787   0.853   2.185 -1.6668 -0.5223 -2.2336
  477SOL     OW 1519   1.279   1.013   2.831 -0.3230 -0.4007  0.1413
  477SOL    HW1 1520   1.193   1.012   2.788 -1.4268  2.9016  1.9374
  477SOL    HW2 1521   1.339   1.045   2.764 -0.9360 -0.4600 -0.4573
  478SOL     OW 1522   2.552   3.209   3.427 -0.5791 -0.5026 -0.2352
  478SOL    HW1 1523   2.523   3.230   3.338 -2.6532  0.6415  0.6319
  478SOL    HW2 1524   2.524   3.284   3.480  2.8955  0.0994  1.0425
  479SOL     OW 1525   0.544   0.710   2.033 -0.1196  0.1163 -0.2648
  479SOL    HW1 1526   0.495   0.788   2.060  2.9669  1.9994  0.3139
  479SOL    HW2 1527   0.500   0.638   2.079 -3.9049  1.1378 -1.8260
  480SOL     OW 1528   3.002   1.445   3.482  0.3009 -0.2360  0.1381
  480SOL    HW1 1529   2.997   1.519   3.420  1.6283 -0.2233  0.0250
  480SOL    HW2 1530   3.095   1.427   3.490 -0.0004 -1.8823  0.2163
  481SOL     OW 1531   2.356   3.734   2.707  0.1946  0.2173  0.3478
  481SOL    HW1 1532   2.292   3.668   2.735 -0.1827  0.5568  0.3038
  481SOL    HW2 1533   2.336   3.749   2.615  0.6534 -0.0214  0.2067
  482SOL     OW 1534   2.983   1.946   2.433 -0.4886  0.3991 -0.0568
  482SOL    HW1 1535   3.009   1.855   2.445 -0.5964  0.4369  0.4682
  482SOL    HW2 1536   2.920   1.944   2.361 -2.5028 -0.3044  1.6247
  483SOL     OW 1537   1.367   1.306   3.317  0.0766  0.0161 -0.4421
  483SOL    HW1 1538   1.328   1.323   3.232 -3.2179  0.6730  1.0486
  483SOL    HW2 1539   1.297   1.325   3.380  2.4197 -0.1628  2.4479
  484SOL     OW 1540   2.594   3.501   3.718  0.0898  0.2388  0.0530
  484SOL    HW1 1541   2.605   3.572   3.655  1.4964 -1.2404 -1.4451
  484SOL    HW2 1542   2.519   3.451   3.684  0.0188  0.1709  0.3072
  485SOL     OW 1543   0.732   2.390   1.288  0.3680  0.3299 -0.2799
  485SOL    HW1 1544   0.685   2.420   1.211 -0.4935  0.9971  0.4869
  485SOL    HW2 1545   0.807   2.450   1.296  0.7651 -0.0775 -0.8962
  486SOL     OW 1546   1.052   3.729   0.920 -0.3845 -0.6325  0.2459
  486SOL    HW1 1547   1.079   3.734   0.829 -1.8015  0.4025 -0.1487
  486SOL    HW2 1548   1.134   3.732   0.970  0.3295  2.4411 -0.8738
  487SOL     OW 1549   2.570   0.446   0.230 -0.0254 -0.2090  0.0211
  487SOL    HW1 1550   2.509   0.480   0.164 -0.1966  0.1332  0.3496
  487SOL    HW2 1551   2.628   0.519   0.249 -0.7004  0.0780  1.0899
  488SOL     OW 1552   2.616   2.321   1.301  0.3075 -0.3418 -0.1837
  488SOL    HW1 1553   2.683   2.284   1.358 -0.0244  0.1918  0.5907
  488SOL    HW2 1554   2.663   2.354   1.225  0.9709  0.2658  0.4685
  489SOL     OW 1555   0.503   2.088   2.544 -0.3427  0.4903 -0.0978
  489SOL    HW1 1556   0.585   2.092   2.594 -0.4237 -0.1344  0.0970
  489SOL    HW2 1557   0.451   2.021   2.589 -0.8470  0.6822 -0.3887
  490SOL     OW 1558   2.193   2.233   0.914  0.8774  0.3913  0.2986
  490SOL    HW1 1559   2.102   2.246   0.942  0.4008 -0.7453 -0.6251
  490SOL    HW2 1560   2.225   2.321   0.895 -0.1143  0.7863  0.3842
  491SOL     OW 1561   1.368   3.423   2.816 -0.1708  0.3952  0.0551
  491SOL    HW1 1562   1.288   3.441   2.767  1.9312  0.7126 -3.6302
  491SOL    HW2 1563   1.397   3.337   2.785  1.0398  0.3835  1.1287
  492SOL     OW 1564   1.633   1.439   1.218  0.5685 -0.5774 -0.2590
  492SOL    HW1 1565   1.681   1.373   1.168  1.2214  0.0084 -0.4108
  492SOL    HW2 1566   1.629   1.403   1.307 -0.2574 -1.4399 -0.6372
  493SOL     OW 1567   0.383   1.390   2.967  0.4947 -0.0953  0.6461
  493SOL    HW1 1568   0.337   1.392   2.883  1.4541 -1.5335  0.0273
  493SOL    HW2 1569   0.413   1.480   2.980 -1.7429  0.7080  0.6989
  494SOL     OW 1570   3.725   1.083   0.910  0.3102  0.0229 -0.2947
  494SOL    HW1 1571   3.694   1.126   0.830  0.4308  0.6613  0.0039
  494SOL    HW2 1572   3.706   0.990   0.895 -0.4563  0.2390 -0.7052
  495SOL     OW 1573   1.317   3.753   3.750 -0.4544 -0.0859 -1.1196
  495SOL    HW1 1574   1.391   3.762   3.689  1.3010  2.8173  1.1220
  495SOL    HW2 1575   1.334   3.671   3.796 -1.1167 -1.6693 -3.5479
  496SOL     OW 1576   1.856   2.637   2.158 -0.3568 -0.2229 -0.4871
  496SOL    HW1 1577   1.873   2.553   2.201  0.0360  0.1147  0.0346
  496SOL    HW2 1578   1.937   2.686   2.171 -0.6523  0.3040 -0.6263
  497SOL     OW 1579   2.750   1.612   0.987  0.5183 -0.1334 -0.0723
  497SOL    HW1 1580   2.680   1.616   1.053 -0.0945  0.1557 -0.7257
  497SOL    HW2 1581   2.830   1.623   1.037  0.0223  0.8346  0.5456
  498SOL     OW 1582   0.449   2.159   3.472  0.0758 -0.1422 -0.0178
  498SOL    HW1 1583   0.429   2.069   3.447  1.0384 -0.7489  1.2565
  498SOL    HW2 1584   0.400   2.174   3.552  0.0998  0.3990 -0.0956
  499SOL     OW 1585   2.057   3.208   2.145 -0.1181 -0.2657 -0.5100
  499SOL    HW1 1586   2.116   3.263   2.196 -1.2668 -0.1968  0.7963
  499SOL    HW2 1587   1.970   3.243   2.162 -0.6378 -0.8769 -1.7412
  500SOL     OW 1588   3.442   2.071   3.215 -0.0474 -0.7337  0.1435
  500SOL    HW1 1589   3.470   2.105   3.300  1.7247 -1.4355 -0.1111
  500SOL    HW2 1590   3.521   2.031   3.178 -0.8468 -0.7117 -1.7072
  501SOL     OW 1591   1.386   3.007   3.838  0.1132  0.1136 -0.4389
  501SOL    HW1 1592   1.427   2.929   3.876  0.1321  0.4352  0.2265
  501SOL    HW2 1593   1.454   3.074   3.841 -0.0696  0.3043 -0.4896
  502SOL     OW 1594   1.849   2.575   0.068  0.1543  0.5602  0.0922
  502SOL    HW1 1595   1.827   2.547   0.157  0.9645  1.8061  0.7138
  502SOL    HW2 1596   1.768   2.613   0.035 -0.8334 -1.8911 -0.5943
  503SOL     OW 1597   0.594   3.027   0.578  0.1893 -0.2336 -0.4246
  503SOL    HW1 1598   0.505   3.023   0.613  0.7877  0.4888  1.3038
  503SOL    HW2 1599   0.583   3.057   0.488 -1.2022  3.1701  0.6927
  504SOL     OW 1600   2.615   1.858   0.924  0.0853 -0.5632 -0.4089
  504SOL    HW1 1601   2.666   1.908   0.860  0.2513  0.7954  0.7525
  504SOL    HW2 1602   2.671   1.782   0.944 -0.3346 -1.4764 -2.4605
  505SOL     OW 1603   2.061   3.580   2.438 -0.1667  0.0858  0.0686
  505SOL    HW1 1604   2.000   3.568   2.510 -0.5666  0.0322 -0.2709
  505SOL    HW2 1605   2.006   3.602   2.363  0.1766 -0.5054 -0.3774
  506SOL     OW 1606   2.434   2.680   0.499  0.1661 -0.2014  0.2346
  506SOL    HW1 1607   2.436   2.636   0.414  2.2795  2.4050 -1.1970
  506SOL    HW2 1608   2.376   2.755   0.486  0.6517  0.3243  1.0099
  507SOL     OW 1609   3.391   3.488   2.052  0.1973  0.5286 -0.0349
  507SOL    HW1 1610   3.410   3.433   2.128  1.4478 -0.4857 -1.0121
  507SOL    HW2 1611   3.467   3.547   2.046  0.9131 -0.4506 -1.3410
  508SOL     OW 1612   2.244   1.493   3.477  0.4320 -0.5775 -0.4350
  508SOL    HW1 1613   2.296   1.548   3.419  0.5313  2.2789  2.0999
  508SOL    HW2 1614   2.306   1.431   3.514  1.2811  0.3700 -0.2355
  509SOL     OW 1615   1.892   1.298   2.709 -0.3678 -0.7326 -0.5075
  509SOL    HW1 1616   1.908   1.271   2.799  0.2651  0.0216 -0.3807
  509SOL    HW2 1617   1.968   1.265   2.660 -0.4106 -0.6279 -0.6457
  510SOL     OW 1618   3.136   0.302   0.034  0.0718  0.8963 -0.1371
  510SOL    HW1 1619   3.145   0.244   0.110 -3.0860  0.1909 -0.1881
  510SOL    HW2 1620   3.087   0.378   0.067 -0.1683  1.2143 -1.1737
  511SOL     OW 1621   0.307   1.355   0.289 -0.2836  0.4466 -0.1519
  511SOL    HW1 1622   0.335   1.355   0.380 -1.1054  1.9079  0.1427
  511SOL    HW2 1623   0.374   1.305   0.243  0.7896  0.7000  1.0705
  512SOL     OW 1624   0.007   3.665   1.605 -0.0950  0.1831  0.0094
  512SOL    HW1 1625   0.005   3.606   1.530 -0.0371 -0.7414  0.7157
  512SOL    HW2 1626   0.090   3.713   1.596  0.3649 -0.5993 -0.0169
  513SOL     OW 1627   2.629   0.047   0.442 -0.1215 -0.0545 -0.0361
  513SOL    HW1 1628   2.668   0.066   0.527  0.1241  0.6653 -0.3049
  513SOL    HW2 1629   2.561   0.114   0.431 -0.2340 -0.2180 -0.3494
  514SOL     OW 1630   3.303   2.029   2.142 -0.4636 -0.1340  0.2007
  514SOL    HW1 1631   3.243   2.048   2.070 -1.3921  0.0365  0.9919
  514SOL    HW2 1632   3.348   1.949   2.116  0.8413  1.1085 -1.5614
  515SOL     OW 1633   3.826   1.389   1.278  0.7271  0.2233  0.0210
  515SOL    HW1 1634   3.746   1.440   1.291  1.3943  2.2395 -2.7639
  515SOL    HW2 1635   3.855   1.412   1.189  3.1358 -2.2518  0.0194
  516SOL     OW 1636   0.812   0.437   3.573  0.0318 -0.4249  0.5398
  516SOL    HW1 1637   0.821   0.469   3.663 -1.2499 -1.1726  0.9508
  516SOL    HW2 1638   0.835   0.344   3.578  1.1467 -0.2090 -0.1547
  517SOL     OW 1639   0.474   0.769   0.699 -0.1752  0.0725 -0.7479
  517SOL    HW1 1640   0.468   0.718   0.618 -1.0726  1.2784 -1.4617
  517SOL    HW2 1641   0.555   0.738   0.740 -0.8155 -2.1140 -0.9984
  518SOL     OW 1642   0.895   3.094   1.479  0.1540  0.0107 -0.1066
  518SOL    HW1 1643   0.920   3.009   1.443 -0.4025 -0.2187  0.0266
  518SOL    HW2 1644   0.971   3.122   1.530  1.3832  0.8521 -2.2845
  519SOL     OW 1645   3.358   3.700   0.990 -0.6817 -0.2752  0.1555
  519SOL    HW1 1646   3.343   3.707   0.896  0.3226 -2.9445 -0.2757
  519SOL    HW2 1647   3.452   3.715   1.001 -0.6268 -0.9530  0.6189
  520SOL     OW 1648   2.564   1.467   0.645 -0.7687 -0.1545 -0.0595
  520SOL    HW1 1649   2.585   1.379   0.677 -0.9342  0.4370  1.7953
  520SOL    HW2 1650   2.538   1.455   0.554  0.6762 -1.8298 -0.2942
  521SOL     OW 1651   0.935   1.377   3.236 -0.0597  0.0621  0.3591
  521SOL    HW1 1652   0.871   1.447   3.245 -0.0381  0.2113 -0.4964
  521SOL    HW2 1653   0.888   1.297   3.259 -0.3225  0.2651  0.5227
  522SOL     OW 1654   3.104   0.628   1.508  0.2675  0.0568  0.3646
  522SOL    HW1 1655   3.053   0.682   1.570  0.0281  0.0968  0.1344
  522SOL    HW2 1656   3.112   0.683   1.430  1.7819  0.5752  0.8508
  523SOL     OW 1657   3.363   2.899   1.099  0.2408  0.1278  0.1804
  523SOL    HW1 1658   3.317   2.844   1.036  0.9922  0.5331 -0.7455
  523SOL    HW2 1659   3.320   2.984   1.093 -0.4987 -0.1688  1.1382
  524SOL     OW 1660   0.043   1.143   1.305 -0.1500 -0.4804  0.2795
  524SOL    HW1 1661  -0.007   1.224   1.292 -0.2267 -0.7224 -1.0537
  524SOL    HW2 1662   0.014   1.111   1.390 -2.1307 -0.5029 -0.3512
  525SOL     OW 1663   2.021   3.461   0.921 -0.2829 -0.0446 -0.0456
  525SOL    HW1 1664   2.080   3.421   0.857 -1.6107 -0.9242 -0.7718
  525SOL    HW2 1665   1.970   3.388   0.956 -1.6312  0.7881 -0.1909
  526SOL     OW 1666   0.942   0.123   0.186  0.2625  0.2902  0.5230
  526SOL    HW1 1667   1.006   0.120   0.115 -0.5300  1.7793 -0.3021
  526SOL    HW2 1668   0.937   0.033   0.218  1.9653 -0.0549 -0.1039
  527SOL     OW 1669   1.914   2.803   1.934 -0.3274  0.3092  0.0358
  527SOL    HW1 1670   1.884   2.743   2.002  0.5729 -0.4700 -0.2230
  527SOL    HW2 1671   2.001   2.830   1.963 -0.6457  1.3449  0.0445
  528SOL     OW 1672   3.734   0.087   2.062 -0.8740 -0.4788  0.2587
  528SOL    HW1 1673   3.757   0.096   1.969 -1.8571  0.0875  0.0511
  528SOL    HW2 1674   3.647   0.047   2.061  0.0902 -2.7450  1.0247
  529SOL     OW 1675   3.621   0.253   2.485 -0.2816 -0.0872  0.4250
  529SOL    HW1 1676   3.698   0.200   2.468  0.4923  0.6289  1.5947
  529SOL    HW2 1677   3.560   0.230   2.415  1.7197  0.7994 -1.7458
  530SOL     OW 1678   0.578   2.810   2.839 -0.1661  0.3756  0.0368
  530SOL    HW1 1679   0.547   2.836   2.752 -1.1186  0.6484  0.4451
  530SOL    HW2 1680   0.630   2.730   2.824 -0.7610  0.1268 -0.7159
  531SOL     OW 1681   1.601   1.316   3.652 -0.2383  0.5276  0.0331
  531SOL    HW1 1682   1.561   1.241   3.609  0.8023  0.5168 -0.9532
  531SOL    HW2 1683   1.546   1.390   3.626 -0.6620  0.2622  0.1656
  532SOL     OW 1684   2.747   3.760   1.202 -0.1854  0.3840 -0.0305
  532SOL    HW1 1685   2.761   3.854   1.206  0.2437  0.5476 -3.0154
  532SOL    HW2 1686   2.654   3.750   1.185 -0.5790  0.1239  2.0296
  533SOL     OW 1687   3.882   0.527   3.882  0.1398  0.0490  0.1809
  533SOL    HW1 1688   3.931   0.607   3.903  1.0997 -0.7394  1.0772
  533SOL    HW2 1689   3.846   0.498   3.966 -0.7108 -0.1529 -0.2361
  534SOL     OW 1690   0.124   3.181   2.039 -0.3933 -0.3685 -0.1879
  534SOL    HW1 1691   0.051   3.225   2.082 -0.7286 -1.1993  0.1084
  534SOL    HW2 1692   0.131   3.225   1.954 -0.1852  0.8001  0.4145
  535SOL     OW 1693   3.383   0.171   0.747 -0.4262 -0.3223 -0.5904
  535SOL    HW1 1694   3.321   0.119   0.696 -1.4944  1.8115 -1.5796
  535SOL    HW2 1695   3.338   0.188   0.829 -0.3711 -0.3583 -0.5527
  536SOL     OW 1696   2.987   2.445   1.290  0.0933  0.0677 -0.1667
  536SOL    HW1 1697   3.037   2.405   1.219  0.1229  0.6791 -0.4981
  536SOL    HW2 1698   3.049   2.455   1.361  0.3523  0.4645 -0.4420
  537SOL     OW 1699   2.341   3.664   0.106 -0.1846 -1.1430  0.0659
  537SOL    HW1 1700   2.345   3.569   0.122  0.1523 -1.0467  0.5721
  537SOL    HW2 1701   2.332   3.671   0.011 -1.9922 -1.7190  0.1553
  538SOL     OW 1702   2.306   0.020   2.187  0.3063  0.6614  0.4136
  538SOL    HW1 1703   2.245   0.049   2.119 -0.4257  0.2512  0.8734
  538SOL    HW2 1704   2.371  -0.033   2.141 -1.1179 -1.0218  0.2178
  539SOL     OW 1705   2.808   3.388   0.558 -0.3829  0.1463 -0.3529
  539SOL    HW1 1706   2.811   3.298   0.590  1.0569  0.4393  0.4080
  539SOL    HW2 1707   2.896   3.404   0.524 -0.9533  0.9051 -1.5463
  540SOL     OW 1708   3.147   2.299   3.388  0.5837 -0.2355  0.2555
  540SOL    HW1 1709   3.188   2.382   3.368 -1.2762  0.8376  0.6776
  540SOL    HW2 1710   3.207   2.256   3.449  1.9609  0.4080 -0.6252
  541SOL     OW 1711   3.153   3.633   2.762 -0.2470 -0.0996  0.1087
  541SOL    HW1 1712   3.238   3.616   2.804 -0.3586  1.1458  0.8676
  541SOL    HW2 1713   3.152   3.728   2.747 -0.6116 -0.3760 -1.8633
  542SOL     OW 1714   0.255   1.950   3.241 -0.5073 -0.5116  0.1277
  542SOL    HW1 1715   0.296   1.866   3.258  2.4759  0.5968 -0.9477
  542SOL    HW2 1716   0.225   1.945   3.150 -1.2380 -0.7150  0.3708
  543SOL     OW 1717   0.059   2.666   1.259 -0.5002  0.0770  0.1528
  543SOL    HW1 1718   0.076   2.700   1.346 -2.3961  1.0271  0.2087
  543SOL    HW2 1719   0.086   2.736   1.200 -0.2765 -0.1081  0.0332
  544SOL     OW 1720   3.520   3.304   0.754 -0.0748  0.4255  0.3728
  544SOL    HW1 1721   3.476   3.311   0.839 -1.3665  0.3665 -0.2753
  544SOL    HW2 1722   3.561   3.217   0.755 -1.8543 -0.4462  0.1300
  545SOL     OW 1723   1.338   0.849   2.556  0.1666 -0.3524  0.2462
  545SOL    HW1 1724   1.358   0.814   2.470  2.5841  1.8757 -0.2161
  545SOL    HW2 1725   1.406   0.915   2.572  0.5817 -1.5009  4.3914
  546SOL     OW 1726   1.780   3.763   1.045 -0.5513  0.2967 -0.2034
  546SOL    HW1 1727   1.773   3.686   1.102  0.4930 -1.0165 -1.7755
  546SOL    HW2 1728   1.783   3.837   1.106 -0.4829 -0.9741  1.4129
  547SOL     OW 1729   1.597   1.123   3.283 -0.4972 -0.3168 -0.3412
  547SOL    HW1 1730   1.519   1.167   3.316 -1.2549 -0.4985 -1.7911
  547SOL    HW2 1731   1.562   1.052   3.228  0.6530  0.3528 -2.0124
  548SOL     OW 1732   3.711   2.390   2.028 -0.3694 -0.0439  1.1259
  548SOL    HW1 1733   3.632   2.350   2.063 -0.7295 -1.0322 -0.6671
  548SOL    HW2 1734   3.772   2.317   2.017 -0.7820 -0.0768 -1.5365
  549SOL     OW 1735   0.429   0.112   3.543 -0.7529 -0.1032 -0.3013
  549SOL    HW1 1736   0.354   0.163   3.509 -1.3739 -1.4430 -1.0112
  549SOL    HW2 1737   0.391   0.058   3.612 -0.4361 -0.7671 -0.6431
  550SOL     OW 1738   2.970   1.969   0.562 -0.3711  0.4883  0.6981
  550SOL    HW1 1739   2.880   1.974   0.594 -0.6552 -0.2156  0.0358
  550SOL    HW2 1740   3.024   1.996   0.637 -1.0347 -0.8221  1.6861
  551SOL     OW 1741   3.670   1.615   2.842 -0.7001  0.2695  0.1603
  551SOL    HW1 1742   3.661   1.705   2.873  1.1077  0.4043  0.4320
  551SOL    HW2 1743   3.759   1.590   2.867 -0.7573 -1.1932 -0.9478
  552SOL     OW 1744   3.208   3.875   1.965 -0.7701  0.6762 -0.1366
  552SOL    HW1 1745   3.182   3.852   1.876 -0.9333 -2.1648  0.5580
  552SOL    HW2 1746   3.144   3.830   2.021 -0.7292  2.4708  1.4517
  553SOL     OW 1747   0.652   3.236   3.644 -0.6030 -0.2005  0.4655
  553SOL    HW1 1748   0.678   3.320   3.606  0.0716 -0.4537  0.3628
  553SOL    HW2 1749   0.693   3.234   3.730 -0.6831 -0.3912  0.5008
  554SOL     OW 1750   1.286   1.210   3.808 -0.0046  0.3367 -0.4441
  554SOL    HW1 1751   1.302   1.203   3.714 -3.5742 -1.8358 -1.0792
  554SOL    HW2 1752   1.225   1.283   3.818 -0.2192  0.0994  0.0652
  555SOL     OW 1753   0.998   2.431   3.689 -0.1294  0.3447  0.3323
  555SOL    HW1 1754   0.958   2.413   3.774  0.8004 -1.6684  0.4039
  555SOL    HW2 1755   1.055   2.506   3.704  0.7610 -0.5769  1.7567
  556SOL     OW 1756   2.353   0.535   1.850  0.3637 -0.2774  0.2246
  556SOL    HW1 1757   2.336   0.583   1.931  1.0229 -2.2213  1.6033
  556SOL    HW2 1758   2.269   0.493   1.829  0.1383  0.3886 -0.2413
  557SOL     OW 1759   1.232   0.869   1.974 -0.3030  0.3142  0.3754
  557SOL    HW1 1760   1.318   0.858   1.934 -1.3093 -1.0190 -1.5892
  557SOL    HW2 1761   1.224   0.795   2.035 -0.2008  0.2292  0.2866
  558SOL     OW 1762   0.782   3.094   0.003 -0.1036 -0.3410  0.2204
  558SOL    HW1 1763   0.743   3.087   0.090  1.7972  0.1563  1.1641
  558SOL    HW2 1764   0.864   3.140   0.017 -0.3745  0.9831 -2.0611
  559SOL     OW 1765   2.765   2.558   2.810  0.2926 -0.2403 -0.9845
  559SOL    HW1 1766   2.706   2.582   2.881  0.2918  0.7165 -1.2981
  559SOL    HW2 1767   2.821   2.635   2.798  0.1277 -0.2951 -2.1884
  560SOL     OW 1768   3.408   2.665   2.289  0.1120  0.0624 -0.4072
  560SOL    HW1 1769   3.427   2.573   2.305  2.0400  0.5770  0.6285
  560SOL    HW2 1770   3.435   2.680   2.199 -0.2013 -0.3625 -0.5776
  561SOL     OW 1771   3.351   2.593   2.543 -0.7130 -0.2506 -0.3870
  561SOL    HW1 1772   3.389   2.645   2.472 -1.1824 -1.6499 -1.7431
  561SOL    HW2 1773   3.257   2.590   2.523 -0.8588 -0.6412  0.3118
  562SOL     OW 1774   1.234   2.017   0.295  0.2716 -0.0483  0.3647
  562SOL    HW1 1775   1.158   2.063   0.330  0.5591  1.0419 -0.3754
  562SOL    HW2 1776   1.287   2.086   0.255  1.3678 -0.8644  0.3701
  563SOL     OW 1777   2.434   0.369   2.766 -0.2321  0.6216  0.1893
  563SOL    HW1 1778   2.402   0.278   2.772  1.5647 -0.0470  0.1601
  563SOL    HW2 1779   2.490   0.379   2.843  0.5184  1.3187 -0.4379
  564SOL     OW 1780   0.533   2.233   3.731  0.1326  0.4511  0.0702
  564SOL    HW1 1781   0.442   2.209   3.748  0.4696 -0.8214  0.1673
  564SOL    HW2 1782   0.554   2.192   3.647  0.1785  2.0224 -0.7380
  565SOL     OW 1783   0.812   1.646   2.866 -0.0480  0.0416  0.2673
  565SOL    HW1 1784   0.860   1.599   2.798  1.0954 -1.5155  2.0373
  565SOL    HW2 1785   0.867   1.721   2.888 -1.3283  1.7010 -1.7495
  566SOL     OW 1786   1.790   0.260   1.157  0.5870  0.7656  0.4252
  566SOL    HW1 1787   1.838   0.287   1.235  2.1997 -1.1640  0.1862
  566SOL    HW2 1788   1.710   0.219   1.190  1.3159 -0.1520  1.0949
  567SOL     OW 1789   2.851   2.747   3.775 -0.5886 -0.4007 -0.2153
  567SOL    HW1 1790   2.879   2.656   3.783  1.2890  0.1893  0.3343
  567SOL    HW2 1791   2.846   2.779   3.865  0.1287  0.4178 -0.4513
  568SOL     OW 1792   2.288   2.542   1.505 -0.2735  0.0925 -0.3547
  568SOL    HW1 1793   2.297   2.579   1.417 -1.4050  0.7857 -0.1957
  568SOL    HW2 1794   2.369   2.567   1.550  0.4212 -0.4801 -1.2571
  569SOL     OW 1795   0.871   2.806   3.553  0.7304 -0.2246  0.1784
  569SOL    HW1 1796   0.834   2.720   3.566 -1.8036  0.9414  1.2059
  569SOL    HW2 1797   0.904   2.832   3.639  0.2615  0.3387  0.1979
  570SOL     OW 1798   2.367   1.043   3.057 -0.3934  0.3029  0.2310
  570SOL    HW1 1799   2.433   0.984   3.094 -0.4420  0.1037 -0.0027
  570SOL    HW2 1800   2.306   0.986   3.010 -0.4964  0.5286  0.0876
  571SOL     OW 1801   2.359   0.867   0.169 -0.0441 -0.7379  0.2158
  571SOL    HW1 1802   2.310   0.940   0.207  1.7319  0.1390  0.9469
  571SOL    HW2 1803   2.419   0.840   0.239  0.1062 -2.1603 -0.4415
  572SOL     OW 1804   2.236   0.698   3.610 -0.0087  0.2422  0.1502
  572SOL    HW1 1805   2.300   0.654   3.554  1.0181  0.9224  0.7400
  572SOL    HW2 1806   2.159   0.711   3.554  0.9113  0.7197 -1.0432
  573SOL     OW 1807   1.735   2.386   2.782  0.4820  0.1264  0.5762
  573SOL    HW1 1808   1.760   2.457   2.842 -0.3434 -0.1969  1.3150
  573SOL    HW2 1809   1.649   2.412   2.749  1.6351  1.1779 -1.8801
  574SOL     OW 1810   1.175   0.050   3.228 -0.5446 -0.1897  0.5428
  574SOL    HW1 1811   1.122  -0.029   3.222  1.9276 -2.0891  1.7109
  574SOL    HW2 1812   1.243   0.039   3.161  0.4632  0.3962  1.4328
  575SOL     OW 1813   3.099   3.869   2.448 -0.6131 -0.1502 -0.5059
  575SOL    HW1 1814   3.132   3.954   2.479 -0.1195 -0.3040 -0.5945
  575SOL    HW2 1815   3.030   3.846   2.509  0.4973 -0.5631  0.6401
  576SOL     OW 1816   3.427   2.837   1.935  0.2103  0.1045  0.2029
  576SOL    HW1 1817   3.332   2.839   1.922  0.4970  1.5704 -2.6435
  576SOL    HW2 1818   3.454   2.929   1.924  2.0452 -0.4514 -0.3111
  577SOL     OW 1819   2.080   0.784   1.348  0.1646 -0.4385  0.8509
  577SOL    HW1 1820   2.173   0.809   1.348  0.6924 -2.0478 -1.6168
  577SOL    HW2 1821   2.049   0.809   1.261 -0.8403 -2.7091  0.4864
  578SOL     OW 1822   3.862   0.715   0.853  0.3237 -0.1766 -0.5590
  578SOL    HW1 1823   3.878   0.639   0.910  0.0889 -0.7051 -1.1814
  578SOL    HW2 1824   3.806   0.681   0.784 -0.0037  0.6424 -0.7015
  579SOL     OW 1825   3.850   0.402   0.576  0.0345 -0.0786 -0.4384
  579SOL    HW1 1826   3.888   0.383   0.662 -3.3902  0.2053  1.2852
  579SOL    HW2 1827   3.820   0.317   0.543 -1.0744  0.1502 -0.0608
  580SOL     OW 1828   1.011   2.996   0.696 -0.0543 -0.1743 -0.5025
  580SOL    HW1 1829   1.046   2.906   0.698 -0.6074 -0.3931  0.8414
  580SOL    HW2 1830   1.087   3.051   0.679  0.3244 -0.8812 -1.1668
  581SOL     OW 1831   2.849   3.423   2.578  0.3504 -0.4172 -0.1272
  581SOL    HW1 1832   2.761   3.387   2.568  0.0626 -1.0063  3.3414
  581SOL    HW2 1833   2.843   3.511   2.542 -1.5880 -0.5449 -0.2085
  582SOL     OW 1834   0.529   3.397   2.858 -0.3837  0.4557  0.0674
  582SOL    HW1 1835   0.600   3.345   2.894 -0.0973  0.7921 -0.0063
  582SOL    HW2 1836   0.472   3.333   2.815 -0.1424  0.1821  0.1477
  583SOL     OW 1837   0.981   0.723   1.934  0.3628 -0.1502 -0.1902
  583SOL    HW1 1838   1.028   0.805   1.920 -0.3340  0.5802  1.5176
  583SOL    HW2 1839   0.952   0.726   2.025 -0.8428 -1.6938 -0.4681
  584SOL     OW 1840   2.882   0.599   0.998  0.2048  0.3822  0.2107
  584SOL    HW1 1841   2.918   0.613   0.911  2.3489 -2.0861  0.5721
  584SOL    HW2 1842   2.831   0.518   0.990 -1.4233  1.2899  0.8232
  585SOL     OW 1843   3.443   2.338   0.991  0.2006 -0.2405  0.1924
  585SOL    HW1 1844   3.387   2.326   1.068  0.2526  1.3429  0.5176
  585SOL    HW2 1845   3.519   2.282   1.009 -1.2589 -2.5499 -0.3379
  586SOL     OW 1846   3.481   3.434   2.577  1.1286  0.2358 -0.8652
  586SOL    HW1 1847   3.543   3.403   2.510  1.0482  0.1724 -0.9102
  586SOL    HW2 1848   3.532   3.434   2.658  1.1885  0.1830 -0.9026
  587SOL     OW 1849   0.112   3.119   2.816  0.4645  0.7070 -0.0868
  587SOL    HW1 1850   0.201   3.133   2.846  0.3435  2.5052 -0.4560
  587SOL    HW2 1851   0.118   3.045   2.756  1.8748  1.3154 -0.7551
  588SOL     OW 1852   0.382   3.806   3.236 -0.2080  0.3978 -0.0292
  588SOL    HW1 1853   0.437   3.839   3.165 -1.1653  1.6411 -0.2357
  588SOL    HW2 1854   0.442   3.758   3.293  0.8822  0.7899 -0.8162
  589SOL     OW 1855   1.529   3.586   2.522  0.4468 -0.6064 -0.2133
  589SOL    HW1 1856   1.470   3.636   2.579  1.1985  0.2139 -0.1371
  589SOL    HW2 1857   1.477   3.567   2.444  0.2839  0.7395 -0.4623
  590SOL     OW 1858   1.565   0.471   0.458  0.4912  0.4869  0.1151
  590SOL    HW1 1859   1.565   0.400   0.521 -1.3589 -1.3150 -1.7628
  590SOL    HW2 1860   1.504   0.535   0.493 -0.8475 -0.6862  0.0322
  591SOL     OW 1861   0.038   1.678   1.700 -0.4908 -0.0522 -0.4132
  591SOL    HW1 1862  -0.045   1.629   1.701 -0.9463  0.7046  0.5949
  591SOL    HW2 1863   0.082   1.649   1.620 -0.8288 -1.9449  0.0438
  592SOL     OW 1864   3.678   2.567   0.540 -0.1580 -0.0066 -1.1107
  592SOL    HW1 1865   3.691   2.659   0.515  0.5334 -0.1193 -1.1913
  592SOL    HW2 1866   3.753   2.546   0.595 -2.0309  0.4666  1.8095
  593SOL     OW 1867   3.472   3.820   0.352  0.2760 -0.2594 -0.0158
  593SOL    HW1 1868   3.457   3.914   0.363 -2.7395 -0.7586  0.8482
  593SOL    HW2 1869   3.507   3.812   0.263  0.4303  1.6522 -0.1726
  594SOL     OW 1870   1.245   2.732   0.803 -0.7442  0.0474 -0.4093
  594SOL    HW1 1871   1.196   2.652   0.786  1.5220 -1.3581 -0.7654
  594SOL    HW2 1872   1.184   2.788   0.852 -3.0769 -1.0359 -1.8878
  595SOL     OW 1873   1.911   1.926   2.993  0.3913  0.7121 -0.3047
  595SOL    HW1 1874   1.961   1.927   2.912 -0.1339 -2.1022 -0.7593
  595SOL    HW2 1875   1.831   1.879   2.971 -0.2157  0.7703  1.6168
  596SOL     OW 1876   2.358   2.598   3.449 -0.4569  0.2845 -0.3954
  596SOL    HW1 1877   2.332   2.689   3.464  1.2099  0.6546  0.5175
  596SOL    HW2 1878   2.320   2.550   3.522  0.3028  0.5895  0.2038
  597SOL     OW 1879   1.402   0.705   1.358 -0.3558  0.2173  0.1435
  597SOL    HW1 1880   1.357   0.766   1.300  0.7181 -1.4898 -2.7101
  597SOL    HW2 1881   1.333   0.651   1.395 -0.9934  0.3772 -0.7727
  598SOL     OW 1882   0.724   0.776   3.691  0.3937  0.2106 -0.0766
  598SOL    HW1 1883   0.808   0.783   3.737  0.5804 -0.0551 -0.3781
  598SOL    HW2 1884   0.680   0.702   3.734  0.7255 -0.2794 -0.5718
  599SOL     OW 1885   2.143   3.570   2.775 -0.5224  0.1008 -0.0133
  599SOL    HW1 1886   2.125   3.518   2.854 -2.8182  3.6564  2.0663
  599SOL    HW2 1887   2.063   3.561   2.723  0.1574 -0.5320 -0.9776
  600SOL     OW 1888   2.981   3.049   1.386 -0.7912 -1.3442  0.0873
  600SOL    HW1 1889   2.933   3.017   1.310 -0.3735 -1.5750 -0.0834
  600SOL    HW2 1890   2.984   3.144   1.374 -1.9267 -1.2425  0.5333
  601SOL     OW 1891   1.018   3.372   3.798  0.0967 -0.5735  1.0013
  601SOL    HW1 1892   0.975   3.388   3.882  0.6609  0.3767  1.1245
  601SOL    HW2 1893   1.015   3.277   3.787  0.1553 -0.7253  2.1704
  602SOL     OW 1894   2.092   1.873   1.852 -0.0481 -0.7957  0.3682
  602SOL    HW1 1895   2.114   1.957   1.893 -2.7491  0.3968 -0.4623
  602SOL    HW2 1896   2.176   1.842   1.817  1.1966  1.1060  1.4390
  603SOL     OW 1897   3.848   0.879   1.779  0.2198  0.1391  0.3096
  603SOL    HW1 1898   3.885   0.858   1.864 -0.8005 -0.9313  0.5192
  603SOL    HW2 1899   3.796   0.802   1.756 -0.9699  1.1334 -0.4520
  604SOL     OW 1900   0.683   0.266   2.354 -0.0405 -0.3343  0.1931
  604SOL    HW1 1901   0.724   0.309   2.280  1.2389 -0.0820  1.0113
  604SOL    HW2 1902   0.754   0.257   2.419 -0.6352 -2.2370  0.6609
  605SOL     OW 1903   0.085   3.458   3.086 -0.2783 -0.4479  0.0846
  605SOL    HW1 1904   0.144   3.394   3.127 -0.1330 -1.5174 -1.6989
  605SOL    HW2 1905   0.087   3.533   3.145  0.8037 -1.4732  1.4241
  606SOL     OW 1906   2.348   0.721   2.403 -0.4809  0.0004  0.5999
  606SOL    HW1 1907   2.441   0.739   2.411 -0.4880 -0.5875  2.4462
  606SOL    HW2 1908   2.338   0.630   2.431 -1.4839 -0.3179 -0.6643
  607SOL     OW 1909   1.327   3.058   1.672  0.2467  0.3002  0.0233
  607SOL    HW1 1910   1.328   2.986   1.608  0.4747  0.8328 -0.5863
  607SOL    HW2 1911   1.285   3.021   1.749 -0.6148 -0.1825 -0.6489
  608SOL     OW 1912   1.396   3.591   1.746  0.3937  0.3420 -0.0904
  608SOL    HW1 1913   1.330   3.661   1.746  1.8733  1.8029  0.7939
  608SOL    HW2 1914   1.347   3.512   1.723 -1.8559  1.1773  1.4800
  609SOL     OW 1915   3.352   0.910   3.811  0.0293  0.0497 -0.5280
  609SOL    HW1 1916   3.278   0.857   3.779  0.4031 -0.2514 -0.9068
  609SOL    HW2 1917   3.333   0.998   3.780 -0.6613  0.1727  0.2127
  610SOL     OW 1918   2.329   3.177   0.334  0.2570 -0.5680  0.2481
  610SOL    HW1 1919   2.397   3.191   0.268 -0.7505  0.0321 -0.7144
  610SOL    HW2 1920   2.321   3.262   0.378  0.7458 -0.8939  0.9694
  611SOL     OW 1921   0.685   3.235   3.262 -0.0835  0.0046 -0.4146
  611SOL    HW1 1922   0.683   3.155   3.315  0.1535 -0.0959 -0.5534
  611SOL    HW2 1923   0.639   3.300   3.314  1.7725  0.4330  0.7658
  612SOL     OW 1924   1.319   0.656   2.779  0.2569  0.3365  0.6229
  612SOL    HW1 1925   1.345   0.740   2.741 -0.0823  1.2911  2.3895
  612SOL    HW2 1926   1.246   0.626   2.725  0.3018  1.2494  0.0487
  613SOL     OW 1927   0.400   0.580   2.368  0.3323 -0.0409  0.0152
  613SOL    HW1 1928   0.353   0.535   2.438  1.5265 -1.2774  0.0641
  613SOL    HW2 1929   0.351   0.559   2.289  1.0977 -1.8850 -0.0305
  614SOL     OW 1930   3.263   3.252   1.740 -0.7157  0.0402 -0.1647
  614SOL    HW1 1931   3.334   3.316   1.740 -0.8155  0.1504 -0.3414
  614SOL    HW2 1932   3.189   3.298   1.701 -0.3449 -0.6900 -1.7915
  615SOL     OW 1933   3.041   0.648   0.776 -0.3637 -0.2318 -0.1157
  615SOL    HW1 1934   3.134   0.672   0.779  0.1276 -1.9509 -0.5324
  615SOL    HW2 1935   3.014   0.667   0.686 -0.2736 -0.2071 -0.1379
  616SOL     OW 1936   2.416   1.176   0.353 -0.2707  0.0637 -0.0195
  616SOL    HW1 1937   2.360   1.243   0.312 -0.4028  0.1643  0.3155
  616SOL    HW2 1938   2.362   1.142   0.426 -0.2400 -0.4726 -0.2438
  617SOL     OW 1939   3.180   2.681   0.381 -0.6258 -0.1238 -0.0248
  617SOL    HW1 1940   3.091   2.648   0.393 -0.4157 -0.9022 -0.5453
  617SOL    HW2 1941   3.191   2.688   0.286 -0.9224  2.2019  0.0546
  618SOL     OW 1942   3.704   0.504   3.529  0.6176  0.1461  0.0093
  618SOL    HW1 1943   3.648   0.436   3.566  0.3682  0.2099 -0.2451
  618SOL    HW2 1944   3.670   0.586   3.566  0.7301  0.1577  0.0862
  619SOL     OW 1945   2.993   0.584   1.846  0.1768 -0.2696 -0.7404
  619SOL    HW1 1946   2.965   0.498   1.877 -0.0210  0.0805  0.0934
  619SOL    HW2 1947   2.933   0.605   1.775 -2.1612  0.6973  1.3444
  620SOL     OW 1948   3.856   2.397   2.262  0.4033  0.1546 -0.0652
  620SOL    HW1 1949   3.848   2.485   2.299 -0.2294 -0.4062  1.2002
  620SOL    HW2 1950   3.789   2.393   2.194 -0.6160  0.1698  0.9042
  621SOL     OW 1951   1.058   3.469   1.062 -0.4894 -0.7971 -0.0512
  621SOL    HW1 1952   1.027   3.555   1.032  2.3447 -0.3347 -2.0656
  621SOL    HW2 1953   1.004   3.449   1.139 -0.8551  3.0813  0.9011
  622SOL     OW 1954   3.589   0.803   3.268  0.4658 -0.4280 -0.5654
  622SOL    HW1 1955   3.523   0.747   3.310  0.1814 -0.3629 -0.9218
  622SOL    HW2 1956   3.566   0.892   3.297 -0.1863 -0.2977 -1.4453
  623SOL     OW 1957   0.328   0.309   0.308 -0.0178  0.5078 -0.7606
  623SOL    HW1 1958   0.388   0.262   0.365 -0.3752  2.3036  1.2126
  623SOL    HW2 1959   0.244   0.265   0.319  0.0501  0.4790 -0.3394
  624SOL     OW 1960   2.410   3.404   3.534 -0.0799  0.0379  0.1622
  624SOL    HW1 1961   2.370   3.436   3.453 -1.4664 -0.7760  0.4936
  624SOL    HW2 1962   2.336   3.393   3.594  0.7030 -1.0909  0.9530
  625SOL     OW 1963   1.345   0.618   1.782 -0.3890 -0.2743 -0.2211
  625SOL    HW1 1964   1.297   0.670   1.717  0.4943 -0.7846 -1.3157
  625SOL    HW2 1965   1.437   0.641   1.768 -0.0337 -1.6693 -0.3235
  626SOL     OW 1966   2.033   0.795   3.143  0.1150 -0.2295  0.1216
  626SOL    HW1 1967   2.092   0.804   3.068  2.5270  0.2765  1.9545
  626SOL    HW2 1968   2.019   0.884   3.174 -1.8202 -0.3224 -0.3360
  627SOL     OW 1969   2.449   1.866   1.504 -0.0635  0.3249 -0.0126
  627SOL    HW1 1970   2.433   1.889   1.413  1.4741  0.1129 -0.3626
  627SOL    HW2 1971   2.499   1.940   1.539  2.6886 -1.2189 -0.4390
  628SOL     OW 1972   3.447   0.200   0.378 -0.1861 -0.1217  0.1135
  628SOL    HW1 1973   3.492   0.211   0.462 -3.1121  0.8247  1.6844
  628SOL    HW2 1974   3.477   0.274   0.325  0.0235  0.5456  1.1341
  629SOL     OW 1975   0.465   2.741   3.402  0.1848 -0.2082 -0.3693
  629SOL    HW1 1976   0.474   2.761   3.495 -0.7172  0.2912 -0.3742
  629SOL    HW2 1977   0.553   2.716   3.373  0.2232 -1.7748  0.9312
  630SOL     OW 1978   3.304   2.850   1.392 -0.5339  0.0332 -0.0562
  630SOL    HW1 1979   3.398   2.853   1.376 -0.5645  1.2229 -0.0936
  630SOL    HW2 1980   3.273   2.776   1.340  0.3380 -0.2083 -0.2464
  631SOL     OW 1981   2.792   3.754   3.184  0.6017 -0.6380  0.0641
  631SOL    HW1 1982   2.855   3.774   3.254 -0.6306 -0.0475  1.0262
  631SOL    HW2 1983   2.784   3.659   3.186  0.2090 -0.5884  1.0527
  632SOL     OW 1984   0.234   1.902   0.866  0.3102  0.1748 -0.4098
  632SOL    HW1 1985   0.293   1.901   0.790 -0.0084 -0.6998 -0.6495
  632SOL    HW2 1986   0.264   1.830   0.922  1.2599  1.5026  0.8736
  633SOL     OW 1987   1.663   1.971   1.529  0.2209 -0.2481 -0.2247
  633SOL    HW1 1988   1.660   1.945   1.621  0.2314  0.2016 -0.0949
  633SOL    HW2 1989   1.734   2.035   1.525  1.9179 -2.0667 -1.0133
  634SOL     OW 1990   0.746   2.548   3.521 -0.0722  0.0023  0.6550
  634SOL    HW1 1991   0.814   2.481   3.517 -0.0853 -0.0195  0.8128
  634SOL    HW2 1992   0.720   2.560   3.429  0.0649 -0.0688  0.6053
  635SOL     OW 1993   1.397   1.934   1.451  0.2958 -0.0166  0.4136
  635SOL    HW1 1994   1.393   1.838   1.451 -0.7430 -0.0040 -0.8559
  635SOL    HW2 1995   1.490   1.954   1.459  1.1099 -1.2617 -3.6682
  636SOL     OW 1996   2.727   3.761   0.118  0.3431  0.1614  0.2912
  636SOL    HW1 1997   2.750   3.741   0.209 -1.2374 -0.0477  0.6797
  636SOL    HW2 1998   2.783   3.704   0.066  0.3157 -0.7168  1.1915
  637SOL     OW 1999   2.297   2.543   1.215  0.7258 -0.0007  0.4041
  637SOL    HW1 2000   2.388   2.540   1.185  0.0908  1.2023 -2.0118
  637SOL    HW2 2001   2.268   2.631   1.190 -1.5819 -0.9620 -0.6096
  638SOL     OW 2002   3.204   3.267   2.753  0.2583 -0.1310 -0.1891
  638SOL    HW1 2003   3.163   3.343   2.793 -1.0274 -0.3781 -1.0005
  638SOL    HW2 2004   3.294   3.268   2.787  0.2659  1.7154 -0.1674
  639SOL     OW 2005   2.846   1.293   0.513 -0.1914  0.4172  0.0789
  639SOL    HW1 2006   2.925   1.334   0.479  0.5598 -0.7502  0.3732
  639SOL    HW2 2007   2.865   1.276   0.605 -1.7491  2.4102  0.8464
  640SOL     OW 2008   1.633   3.411   0.054  0.3903 -0.2537 -0.2437
  640SOL    HW1 2009   1.716   3.399   0.100  0.1830  0.8472  0.4539
  640SOL    HW2 2010   1.566   3.406   0.122 -0.1464 -1.3121 -0.8273
  641SOL     OW 2011   1.805   2.100   0.399  0.1157  0.0505  0.3082
  641SOL    HW1 2012   1.800   2.170   0.464 -0.8022 -0.7447  1.1246
  641SOL    HW2 2013   1.822   2.145   0.317  1.9280  1.0433  1.1651
  642SOL     OW 2014   0.191   3.374   2.439 -0.1382 -0.3703  0.0322
  642SOL    HW1 2015   0.126   3.412   2.380 -0.0131  1.0221  0.7473
  642SOL    HW2 2016   0.154   3.388   2.527 -0.0238 -1.8276  0.3345
  643SOL     OW 2017   3.707   1.383   1.737  0.1141  0.0435  0.8413
  643SOL    HW1 2018   3.746   1.317   1.795 -0.3999 -0.9043  0.1185
  643SOL    HW2 2019   3.772   1.395   1.668  0.6697  1.0812  1.5161
  644SOL     OW 2020   1.288   3.689   1.043 -0.0313  0.1952  0.4361
  644SOL    HW1 2021   1.276   3.626   1.114 -1.4713 -0.3788 -0.2817
  644SOL    HW2 2022   1.316   3.770   1.087 -1.5192  0.0391  1.7441
  645SOL     OW 2023   0.722   1.111   0.488  0.1805 -0.0089 -0.1526
  645SOL    HW1 2024   0.746   1.197   0.523 -2.5955  0.5578  0.6512
  645SOL    HW2 2025   0.707   1.127   0.395 -0.7821  0.5610  0.0739
  646SOL     OW 2026   0.100   1.957   3.477  0.0661  0.0351  0.0337
  646SOL    HW1 2027   0.174   1.905   3.446 -0.2806  0.3207 -1.3354
  646SOL    HW2 2028   0.031   1.942   3.411 -0.1852  1.8773 -0.1682
  647SOL     OW 2029   0.802   0.827   1.130 -0.2524 -0.2745 -0.1425
  647SOL    HW1 2030   0.713   0.799   1.150 -0.2296  1.5234  3.3931
  647SOL    HW2 2031   0.791   0.912   1.086 -0.4202  0.8443  1.9134
  648SOL     OW 2032   2.911   1.270   1.703 -0.2570  0.2715 -0.0155
  648SOL    HW1 2033   2.843   1.246   1.639 -0.0475  0.8379 -0.4595
  648SOL    HW2 2034   2.975   1.199   1.699 -0.8926 -0.3497  0.5226
  649SOL     OW 2035   0.235   1.331   1.215 -0.1174  0.0024  0.1479
  649SOL    HW1 2036   0.164   1.368   1.164 -0.7914  1.4634  2.0258
  649SOL    HW2 2037   0.193   1.267   1.272  0.2367  0.0373  0.4547
  650SOL     OW 2038   1.141   2.277   1.836  0.2450  0.6848  0.2556
  650SOL    HW1 2039   1.211   2.214   1.852 -1.3619 -0.6199  2.7290
  650SOL    HW2 2040   1.060   2.228   1.851 -1.0916  3.1292  1.7034
  651SOL     OW 2041   3.591   3.524   3.743 -0.1284  0.2279 -0.3375
  651SOL    HW1 2042   3.516   3.584   3.743  0.7678  1.4420 -1.5583
  651SOL    HW2 2043   3.576   3.468   3.667  0.8913  1.4932 -1.5381
  652SOL     OW 2044   2.534   0.317   1.159 -0.2160  0.4049 -0.2764
  652SOL    HW1 2045   2.517   0.233   1.116 -1.8335  0.3746  0.3594
  652SOL    HW2 2046   2.597   0.295   1.228 -0.6280 -0.2933 -0.1117
  653SOL     OW 2047   0.928   1.741   0.171 -0.2593 -0.6347  0.3766
  653SOL    HW1 2048   0.959   1.754   0.260  1.1455 -1.5746  0.0524
  653SOL    HW2 2049   0.842   1.699   0.181 -0.5060  0.0463  1.2661
  654SOL     OW 2050   0.758   1.942   0.934  0.4082  0.1781 -0.0560
  654SOL    HW1 2051   0.811   2.020   0.954 -0.1423  0.6262 -0.3133
  654SOL    HW2 2052   0.817   1.869   0.947  0.9943  0.6545 -0.0040
  655SOL     OW 2053   1.968   1.137   2.294  0.0429  0.1150  0.2856
  655SOL    HW1 2054   2.024   1.078   2.243  1.7757  1.4855  0.5382
  655SOL    HW2 2055   1.969   1.219   2.245 -2.8067 -0.1393 -0.3675
  656SOL     OW 2056   1.586   0.627   1.554 -0.0346 -0.4533  0.5520
  656SOL    HW1 2057   1.589   0.533   1.538 -1.0825 -0.6334  1.3251
  656SOL    HW2 2058   1.544   0.663   1.476  2.1046 -0.3703 -0.6241
  657SOL     OW 2059   1.981   1.189   1.454 -0.1187  0.2664 -0.0177
  657SOL    HW1 2060   1.894   1.153   1.437  0.3322 -1.2919  0.7854
  657SOL    HW2 2061   1.982   1.272   1.406 -0.9087 -1.1654 -2.7213
  658SOL     OW 2062   2.985   0.565   3.712 -0.2190 -0.1944 -0.3438
  658SOL    HW1 2063   2.911   0.556   3.772 -0.1579 -1.4921 -0.4518
  658SOL    HW2 2064   2.945   0.585   3.628 -0.5951 -2.5051 -0.7678
  659SOL     OW 2065   0.792   2.458   1.797  0.2521  0.0475  0.2982
  659SOL    HW1 2066   0.822   2.527   1.856  1.4515 -0.6567  0.5543
  659SOL    HW2 2067   0.736   2.503   1.734 -2.1343  0.6508  2.6486
  660SOL     OW 2068   1.747   3.789   3.482  0.7739  0.4897  0.0083
  660SOL    HW1 2069   1.722   3.880   3.463  1.8467  0.6774 -0.6277
  660SOL    HW2 2070   1.842   3.788   3.468  1.0057 -0.3884  1.4237
  661SOL     OW 2071   0.716   0.368   2.728 -0.2186  0.9300  0.1582
  661SOL    HW1 2072   0.793   0.356   2.784  0.5112 -0.7247 -1.1208
  661SOL    HW2 2073   0.691   0.279   2.703 -2.0395  1.4954 -0.1660
  662SOL     OW 2074   0.374   1.280   0.553  0.2729 -0.0100 -0.1808
  662SOL    HW1 2075   0.440   1.347   0.568  2.6973 -1.5844 -2.8464
  662SOL    HW2 2076   0.407   1.203   0.599  0.2970 -0.8075 -1.4845
  663SOL     OW 2077   1.290   0.298   1.466 -0.6835 -0.2120  0.0101
  663SOL    HW1 2078   1.318   0.307   1.374  1.2036 -0.9372  0.4753
  663SOL    HW2 2079   1.248   0.213   1.470 -1.3784  0.1105 -0.3184
  664SOL     OW 2080   2.598   3.520   0.942  0.0669 -0.6182 -0.3251
  664SOL    HW1 2081   2.588   3.506   0.848 -0.4884  0.2984 -0.4154
  664SOL    HW2 2082   2.511   3.543   0.972  0.4657  0.2622  0.1983
  665SOL     OW 2083   0.282   3.605   2.064 -0.0065 -0.6213  0.1161
  665SOL    HW1 2084   0.248   3.521   2.035  1.7061 -0.8427 -1.4532
  665SOL    HW2 2085   0.359   3.621   2.008 -0.5040  2.1784  0.0569
  666SOL     OW 2086   3.883   1.425   0.541 -0.1587  0.4396 -0.1075
  666SOL    HW1 2087   3.859   1.338   0.572  1.1621 -0.0476 -0.3993
  666SOL    HW2 2088   3.928   1.409   0.458  0.1490  1.4046 -0.1348
  667SOL     OW 2089   2.415   2.968   1.975  0.0357  0.1523 -0.3627
  667SOL    HW1 2090   2.392   2.885   2.016 -0.0130  0.3105 -0.0738
  667SOL    HW2 2091   2.406   2.951   1.881 -1.9952  0.4327 -0.2563
  668SOL     OW 2092   0.376   2.489   3.385  0.0496 -0.3137  0.1424
  668SOL    HW1 2093   0.412   2.576   3.366  1.3098 -1.2359 -1.9596
  668SOL    HW2 2094   0.452   2.432   3.391 -0.7376 -1.2525  1.9805
  669SOL     OW 2095   1.013   0.088   2.144 -0.1083  0.9027 -0.4168
  669SOL    HW1 2096   1.019   0.054   2.055  0.8778 -0.3557  0.1054
  669SOL    HW2 2097   1.011   0.183   2.133  4.5318  1.1247 -1.7097
  670SOL     OW 2098   2.333   2.102   0.279  0.5094 -0.4093  0.4431
  670SOL    HW1 2099   2.310   2.019   0.235 -0.9300  0.7914 -1.2287
  670SOL    HW2 2100   2.428   2.098   0.288  0.8377 -1.0611 -2.2499
  671SOL     OW 2101   3.339   0.261   3.476  0.0686  0.3263 -0.1016
  671SOL    HW1 2102   3.298   0.332   3.526 -0.8180 -1.0144  1.1544
  671SOL    HW2 2103   3.343   0.295   3.386 -1.4838  1.4952  0.2181
  672SOL     OW 2104   3.609   2.446   2.987 -0.1326 -0.2461 -0.4152
  672SOL    HW1 2105   3.541   2.380   3.000 -0.4401 -0.0257 -0.9034
  672SOL    HW2 2106   3.606   2.467   2.894  1.0067 -0.6694 -0.5731
  673SOL     OW 2107   0.917   0.757   3.884 -0.3073 -0.3492  0.5326
  673SOL    HW1 2108   0.904   0.697   3.957  0.4538 -3.4239 -1.6913
  673SOL    HW2 2109   1.012   0.763   3.874 -0.4001  0.0247 -0.2265
  674SOL     OW 2110   1.560   3.402   0.632  0.0657  0.0913  0.3071
  674SOL    HW1 2111   1.568   3.310   0.656  1.2349  0.0366 -0.1649
  674SOL    HW2 2112   1.583   3.451   0.711  1.2238 -0.0588  0.0844
  675SOL     OW 2113   3.267   1.379   3.439 -0.2609  0.1694  0.0330
  675SOL    HW1 2114   3.307   1.416   3.360 -0.2893 -0.4399 -0.2803
  675SOL    HW2 2115   3.242   1.290   3.412 -1.0246  0.2457  0.4885
  676SOL     OW 2116   2.572   2.996   3.597 -0.0315  0.0219  0.2653
  676SOL    HW1 2117   2.491   2.947   3.609  0.9826 -1.5478  0.9604
  676SOL    HW2 2118   2.544   3.079   3.557 -1.6566 -1.6429 -2.2991
  677SOL     OW 2119   1.893   3.707   2.251 -0.3768 -0.2306 -0.9290
  677SOL    HW1 2120   1.944   3.665   2.182  0.8181  1.6782 -1.3152
  677SOL    HW2 2121   1.854   3.783   2.209 -1.4521 -0.2490 -0.0041
  678SOL     OW 2122   2.952   3.815   3.392 -0.7306  0.2674  0.1626
  678SOL    HW1 2123   3.047   3.810   3.402 -0.6595  1.7773  0.5541
  678SOL    HW2 2124   2.924   3.878   3.458 -1.7875  1.0925 -1.0210
  679SOL     OW 2125   2.991   0.403   1.592  0.1017 -0.4386  0.1298
  679SOL    HW1 2126   3.045   0.480   1.573  0.5018 -1.0263 -1.1838
  679SOL    HW2 2127   3.020   0.374   1.679 -1.7203  2.2664  1.7974
  680SOL     OW 2128   2.457   3.743   0.380 -0.0879  0.6956  0.2349
  680SOL    HW1 2129   2.456   3.732   0.285 -0.4558  0.8663  0.2162
  680SOL    HW2 2130   2.520   3.814   0.395 -1.0774  1.6551 -0.0019
  681SOL     OW 2131   1.938   0.268   3.357 -0.1170  0.1313 -0.5045
  681SOL    HW1 2132   1.849   0.234   3.342 -0.3440  1.6753 -3.1701
  681SOL    HW2 2133   1.990   0.230   3.286  0.7921  1.1875 -0.4108
  682SOL     OW 2134   1.457   3.275   1.977 -0.2255  0.6247 -0.0011
  682SOL    HW1 2135   1.496   3.211   1.917 -0.5090  0.2598  0.1999
  682SOL    HW2 2136   1.497   3.257   2.061  1.5082  2.3002 -0.4114
  683SOL     OW 2137   2.210   0.131   2.884  0.0754 -0.1580 -0.0861
  683SOL    HW1 2138   2.146   0.170   2.824  0.2263  0.7116  0.3090
  683SOL    HW2 2139   2.159   0.068   2.935 -0.6891  1.1826  0.8639
  684SOL     OW 2140   1.656   3.091   2.547  0.0161 -0.0774  0.3940
  684SOL    HW1 2141   1.608   3.144   2.611 -0.7937 -0.7409  0.3622
  684SOL    HW2 2142   1.596   3.084   2.473  0.5512 -0.1426 -0.0385
  685SOL     OW 2143   3.169   0.684   2.699  0.4025 -0.5432 -0.1881
  685SOL    HW1 2144   3.188   0.593   2.721 -0.0795 -0.4652  0.5448
  685SOL    HW2 2145   3.219   0.735   2.763  1.1774 -0.2661 -0.9817
  686SOL     OW 2146   2.181   0.600   0.798 -0.4259 -0.1075 -0.3509
  686SOL    HW1 2147   2.116   0.532   0.818  1.3446 -1.0502  3.0680
  686SOL    HW2 2148   2.260   0.552   0.773 -0.2054  0.8886 -1.6309
  687SOL     OW 2149   3.319   3.509   1.519 -0.0849 -0.7726  0.3032
  687SOL    HW1 2150   3.385   3.449   1.486  0.2890 -0.4001  0.3656
  687SOL    HW2 2151   3.333   3.511   1.614 -1.0939 -1.7675  0.4973
  688SOL     OW 2152   2.623   1.028   3.857  0.0597 -0.1315 -0.6228
  688SOL    HW1 2153   2.616   1.121   3.838 -0.5595 -0.0662 -0.1034
  688SOL    HW2 2154   2.589   1.019   3.946  1.6934 -0.6077 -0.0014
  689SOL     OW 2155   2.266   0.224   0.820 -0.2043  0.1512 -0.5809
  689SOL    HW1 2156   2.284   0.130   0.820  0.7373  0.3189 -0.0779
  689SOL    HW2 2157   2.171   0.231   0.812 -0.4338 -0.8815  0.9122
  690SOL     OW 2158   1.653   3.450   3.646 -0.3959  0.2754  0.3940
  690SOL    HW1 2159   1.686   3.360   3.657  3.5102  1.5166  0.4472
  690SOL    HW2 2160   1.654   3.487   3.734  0.0008  0.9312  0.1197
  691SOL     OW 2161   2.882   1.508   1.480 -0.1969 -0.9624 -0.0158
  691SOL    HW1 2162   2.924   1.578   1.530 -2.2642 -1.6419  2.9377
  691SOL    HW2 2163   2.796   1.542   1.457  0.7261 -0.6241 -3.4915
  692SOL     OW 2164   0.386   3.012   1.790  0.0720  0.3446  0.1211
  692SOL    HW1 2165   0.473   2.974   1.778 -0.2299 -0.5601  0.7309
  692SOL    HW2 2166   0.336   2.981   1.714  0.2526  0.8024 -0.1894
  693SOL     OW 2167   1.475   1.358   2.564  0.2115 -0.1333 -0.2226
  693SOL    HW1 2168   1.524   1.378   2.485 -0.6710 -1.4899 -1.1421
  693SOL    HW2 2169   1.534   1.383   2.635  0.6919  1.9168 -1.2655
  694SOL     OW 2170   2.836   1.444   2.931 -0.2502 -0.3782 -0.0203
  694SOL    HW1 2171   2.929   1.461   2.915  0.4087 -1.8392  1.8766
  694SOL    HW2 2172   2.828   1.349   2.931 -1.9916 -0.2801 -1.1831
  695SOL     OW 2173   2.267   2.411   3.655  0.1977  0.2737 -0.6393
  695SOL    HW1 2174   2.271   2.324   3.617 -0.6955  0.1653 -0.5099
  695SOL    HW2 2175   2.185   2.412   3.705  0.0692  1.2584 -0.8437
  696SOL     OW 2176   0.710   2.621   0.088 -0.1129  0.5875  0.0933
  696SOL    HW1 2177   0.677   2.577   0.010  1.8410 -3.5253  1.3168
  696SOL    HW2 2178   0.718   2.713   0.062 -3.9625  0.3090 -2.9196
  697SOL     OW 2179   0.950   0.507   2.321 -0.1521 -0.1103  0.1133
  697SOL    HW1 2180   0.890   0.577   2.345  0.1475  1.0174 -2.1605
  697SOL    HW2 2181   0.946   0.445   2.394 -2.5150  0.9167  0.9308
  698SOL     OW 2182   0.649   3.687   2.209  0.0550 -0.1987  0.1380
  698SOL    HW1 2183   0.569   3.666   2.257  0.4862 -1.3874  0.3639
  698SOL    HW2 2184   0.704   3.609   2.217  1.9411  1.1799  1.3881
  699SOL     OW 2185   2.654   3.471   0.309 -0.4139 -0.0909 -0.0496
  699SOL    HW1 2186   2.705   3.462   0.390  2.8674 -0.4716 -1.9563
  699SOL    HW2 2187   2.635   3.565   0.305 -0.6294 -0.0616  1.1528
  700SOL     OW 2188   3.607   3.675   2.027  0.0711  0.2534 -0.7397
  700SOL    HW1 2189   3.613   3.687   2.122 -1.2530 -0.0488 -0.5869
  700SOL    HW2 2190   3.697   3.666   1.998  0.4681 -0.3644  0.5965
  701SOL     OW 2191   1.734   2.850   0.800 -0.6869 -0.0154  0.7617
  701SOL    HW1 2192   1.777   2.898   0.729 -1.3354  2.0039  1.6658
  701SOL    HW2 2193   1.643   2.841   0.771 -0.4621 -1.1751  0.3820
  702SOL     OW 2194   1.231   3.058   0.177 -0.0660 -0.3295  0.2519
  702SOL    HW1 2195   1.185   2.982   0.213  0.5907 -0.4400  0.8899
  702SOL    HW2 2196   1.284   3.021   0.106 -0.3527 -0.3391  0.0454
  703SOL     OW 2197   3.846   0.147   0.499  0.5711  0.5939 -0.0014
  703SOL    HW1 2198   3.820   0.086   0.430 -0.2819  1.6409 -0.6392
  703SOL    HW2 2199   3.893   0.093   0.563  1.0268 -0.4648 -1.2002
  704SOL     OW 2200   0.487   1.979   2.290 -0.3553  0.2685 -0.0783
  704SOL    HW1 2201   0.484   1.889   2.324  3.4397 -0.0330 -0.1095
  704SOL    HW2 2202   0.491   2.034   2.368  2.6258 -0.0516  0.1019
  705SOL     OW 2203   1.177   1.718   1.069  0.0994 -0.0090 -0.2919
  705SOL    HW1 2204   1.190   1.791   1.009  0.4097  0.3703  0.2294
  705SOL    HW2 2205   1.204   1.752   1.154 -0.3799 -0.5277  0.0701
  706SOL     OW 2206   0.245   2.164   3.681 -0.6559 -0.1066 -0.2195
  706SOL    HW1 2207   0.167   2.167   3.625 -0.0560 -1.1872 -1.1411
  706SOL    HW2 2208   0.210   2.158   3.770 -1.6250  0.2586 -0.5590
  707SOL     OW 2209   2.067   1.630   3.631 -0.1185 -0.0286 -0.1832
  707SOL    HW1 2210   2.133   1.586   3.576 -0.7193 -0.9516 -0.2003
  707SOL    HW2 2211   1.986   1.623   3.580 -0.5528 -0.3261  0.5348
  708SOL     OW 2212   2.494   1.492   1.127  0.8369  0.4722  0.5568
  708SOL    HW1 2213   2.457   1.503   1.040 -2.2635 -0.7182  1.5593
  708SOL    HW2 2214   2.561   1.425   1.118 -0.7625 -1.0431 -0.6561
  709SOL     OW 2215   2.674   0.866   3.070 -0.1300 -0.3202 -0.8363
  709SOL    HW1 2216   2.760   0.906   3.061 -0.8950  1.2154 -1.7680
  709SOL    HW2 2217   2.666   0.809   2.994  0.4768 -1.3244 -0.1645
  710SOL     OW 2218   3.788   2.207   0.819 -0.4689 -0.4134 -0.1007
  710SOL    HW1 2219   3.735   2.128   0.824 -1.2089  0.0918  0.2056
  710SOL    HW2 2220   3.768   2.255   0.899  0.9901 -0.5342  0.3729
  711SOL     OW 2221   0.437   3.525   3.780  0.2498  0.2835  0.3412
  711SOL    HW1 2222   0.522   3.502   3.816  0.2286  1.7299  1.4162
  711SOL    HW2 2223   0.380   3.533   3.856 -0.3337  1.3001 -0.1712
  712SOL     OW 2224   0.227   2.562   2.291 -0.4998  0.0909 -0.0270
  712SOL    HW1 2225   0.153   2.610   2.326 -3.2628 -2.5863 -1.6631
  712SOL    HW2 2226   0.261   2.510   2.364 -0.3159  1.2163  0.6930
  713SOL     OW 2227   2.779   1.639   2.450 -0.2963 -0.0060 -0.1994
  713SOL    HW1 2228   2.755   1.635   2.543 -1.2751 -0.3717 -0.4541
  713SOL    HW2 2229   2.855   1.580   2.443  0.3648  0.7274  0.5180
  714SOL     OW 2230   1.047   1.401   1.831 -0.0199  0.2273 -0.1817
  714SOL    HW1 2231   1.143   1.402   1.821 -0.1292  2.3319 -1.6190
  714SOL    HW2 2232   1.016   1.351   1.756 -0.1059  0.7136 -0.4695
  715SOL     OW 2233   1.524   3.348   2.325 -0.3613 -0.2860 -0.0678
  715SOL    HW1 2234   1.432   3.374   2.335  0.0050  2.1900 -2.1082
  715SOL    HW2 2235   1.565   3.375   2.407 -0.8979  1.6797 -0.3851
  716SOL     OW 2236   0.677   1.268   2.641 -0.0508  0.4508 -0.2032
  716SOL    HW1 2237   0.684   1.364   2.641 -0.6576  0.4990 -0.3070
  716SOL    HW2 2238   0.749   1.239   2.585  0.7993  0.7857  0.6897
  717SOL     OW 2239   3.212   1.940   1.748  0.0429 -0.4665  0.4887
  717SOL    HW1 2240   3.186   1.972   1.662  1.4700  1.2995  0.6566
  717SOL    HW2 2241   3.246   1.852   1.732 -3.0579 -1.6743 -0.1413
  718SOL     OW 2242   2.348   3.199   1.104 -0.8598  0.1339 -0.3191
  718SOL    HW1 2243   2.263   3.194   1.062 -1.2327  0.9036  0.3309
  718SOL    HW2 2244   2.408   3.226   1.034 -1.6838  2.7201 -0.1376
  719SOL     OW 2245   1.470   2.391   2.685 -0.3279 -0.4914 -0.4913
  719SOL    HW1 2246   1.443   2.306   2.650  2.2791 -2.0750  0.9910
  719SOL    HW2 2247   1.403   2.413   2.749 -0.8669 -1.6063 -0.6427
  720SOL     OW 2248   3.358   0.302   1.956 -0.1616  0.0686 -0.1277
  720SOL    HW1 2249   3.381   0.368   2.022 -0.2411  1.4700 -1.4413
  720SOL    HW2 2250   3.420   0.231   1.970  0.0508  0.4945  1.2156
  721SOL     OW 2251   2.410   0.914   3.563 -0.1455  0.0601  0.2559
  721SOL    HW1 2252   2.336   0.975   3.559 -0.5751 -0.4271  0.6250
  721SOL    HW2 2253   2.370   0.828   3.565  0.4680 -0.2574 -0.5756
  722SOL     OW 2254   1.751   2.591   3.235 -0.5097  0.6011 -0.0306
  722SOL    HW1 2255   1.768   2.682   3.262  0.6428  0.6683 -0.9069
  722SOL    HW2 2256   1.790   2.585   3.148 -1.9035 -0.3268 -0.6196
  723SOL     OW 2257   1.645   0.463   0.865 -0.4670 -0.1787  0.5342
  723SOL    HW1 2258   1.634   0.548   0.822 -0.7380  0.7227  2.2882
  723SOL    HW2 2259   1.703   0.481   0.938 -1.3427 -1.2825  1.5366
  724SOL     OW 2260   1.736   0.633   3.364  0.0856 -0.5155 -0.6627
  724SOL    HW1 2261   1.710   0.593   3.447 -4.1349  2.7243 -0.0721
  724SOL    HW2 2262   1.699   0.574   3.298  0.0483 -1.1045 -0.1357
  725SOL     OW 2263   0.331   0.884   3.481 -0.0838  0.1075  0.0816
  725SOL    HW1 2264   0.330   0.845   3.569 -1.2975  0.6812  0.3435
  725SOL    HW2 2265   0.380   0.822   3.428  0.6618 -0.2568  1.1589
  726SOL     OW 2266   1.829   3.706   0.232 -0.1903 -0.7090 -0.1095
  726SOL    HW1 2267   1.837   3.673   0.142  0.6636  0.3345 -0.4320
  726SOL    HW2 2268   1.916   3.695   0.269 -0.2603 -0.1141  0.2355
  727SOL     OW 2269   3.855   2.953   2.968  0.1680 -0.6795 -0.4558
  727SOL    HW1 2270   3.915   3.017   2.930  0.3400 -0.4373  0.2120
  727SOL    HW2 2271   3.901   2.870   2.961  0.8046 -0.4246  0.4997
  728SOL     OW 2272   2.639   0.823   3.349  0.0304  0.8507 -0.2174
  728SOL    HW1 2273   2.630   0.828   3.254  0.1350  1.2643 -0.2065
  728SOL    HW2 2274   2.553   0.848   3.383 -0.7441 -1.5211 -0.2331
  729SOL     OW 2275   2.683   2.285   3.124  1.1853  0.0170  0.2264
  729SOL    HW1 2276   2.721   2.199   3.142  1.9274  0.0544 -1.0488
  729SOL    HW2 2277   2.599   2.267   3.083  0.6035 -0.0680  1.3968
  730SOL     OW 2278   1.032   0.256   1.750 -0.3412 -0.0589 -0.0385
  730SOL    HW1 2279   0.974   0.307   1.693 -1.6386 -0.1551  1.1604
  730SOL    HW2 2280   1.076   0.321   1.804  0.0740 -0.0463 -0.3820
  731SOL     OW 2281   1.483   2.420   1.154  0.1251  0.2489  0.7156
  731SOL    HW1 2282   1.511   2.395   1.242 -2.1773 -0.6499  1.2503
  731SOL    HW2 2283   1.501   2.343   1.101 -0.9452 -0.2167  0.9973
  732SOL     OW 2284   0.599   3.177   0.303  0.6264  0.0058  0.3380
  732SOL    HW1 2285   0.692   3.201   0.298  0.4118  1.1420  1.2554
  732SOL    HW2 2286   0.554   3.260   0.322 -0.4787 -0.6611  0.7141
  733SOL     OW 2287   3.434   3.279   2.230 -0.5444  0.0273 -0.2419
  733SOL    HW1 2288   3.374   3.241   2.295 -0.1760  0.3695  0.3129
  733SOL    HW2 2289   3.445   3.211   2.164  0.3586 -0.9766  0.8916
  734SOL     OW 2290   0.486   0.998   1.724 -0.5786 -0.1398 -0.0777
  734SOL    HW1 2291   0.496   0.993   1.629 -0.1957 -0.4067 -0.0247
  734SOL    HW2 2292   0.433   0.922   1.746 -0.5793 -0.1355 -0.0652
  735SOL     OW 2293   0.288   3.197   3.672 -0.0837 -0.2087  0.2194
  735SOL    HW1 2294   0.351   3.248   3.722 -1.1065  0.5953  0.7291
  735SOL    HW2 2295   0.203   3.224   3.706 -1.0908  2.4793 -3.6559
  736SOL     OW 2296   1.966   1.896   1.466 -0.1497 -0.3148 -0.1467
  736SOL    HW1 2297   1.950   1.990   1.459  2.2042  0.5213  3.0448
  736SOL    HW2 2298   2.025   1.876   1.394 -0.5353  0.6818 -0.7593
  737SOL     OW 2299   3.601   3.885   0.818 -0.3231  0.3570 -0.1754
  737SOL    HW1 2300   3.581   3.835   0.739  0.4278 -0.9064  0.4018
  737SOL    HW2 2301   3.526   3.944   0.829 -0.8220 -0.0339 -1.3605
  738SOL     OW 2302   2.103   1.224   2.549 -0.2160 -0.3110  0.1052
  738SOL    HW1 2303   2.072   1.181   2.469 -0.4916  0.0422  0.0210
  738SOL    HW2 2304   2.114   1.316   2.525  0.9860 -0.4325  0.1101
  739SOL     OW 2305   3.032   1.229   0.156 -0.2973 -0.2469 -0.2166
  739SOL    HW1 2306   3.115   1.212   0.200  0.5552  0.5200 -1.4767
  739SOL    HW2 2307   2.992   1.300   0.206  1.5121  1.9065 -1.6368
  740SOL     OW 2308   3.435   3.383   3.137  0.4077 -0.0544  0.4583
  740SOL    HW1 2309   3.489   3.449   3.180  0.9359  0.3580 -0.7897
  740SOL    HW2 2310   3.497   3.316   3.110  0.5592  0.9991 -2.0787
  741SOL     OW 2311   1.331   0.597   3.247  0.9539 -0.0527  0.3964
  741SOL    HW1 2312   1.334   0.674   3.190 -0.5104  0.7126  1.2762
  741SOL    HW2 2313   1.354   0.630   3.334  0.5162 -0.6426  0.7466
  742SOL     OW 2314   3.788   0.917   0.184  0.1281 -0.1825 -0.8735
  742SOL    HW1 2315   3.785   0.896   0.277 -2.0853  1.7217 -0.4155
  742SOL    HW2 2316   3.700   0.895   0.152  0.2396  1.0002 -2.0732
  743SOL     OW 2317   1.291   2.632   1.082  0.6377  0.4953 -0.4572
  743SOL    HW1 2318   1.337   2.660   1.003  0.3409 -0.6354 -1.0613
  743SOL    HW2 2319   1.337   2.552   1.109 -1.5379 -1.2828 -1.6790
  744SOL     OW 2320   0.663   1.034   3.609  0.4414  0.2894  0.5087
  744SOL    HW1 2321   0.742   0.985   3.585 -1.8763 -2.8492 -1.4742
  744SOL    HW2 2322   0.605   0.968   3.647 -1.7962  2.1693  0.5702
  745SOL     OW 2323   2.583   1.459   1.982 -0.2084  0.3235  0.1721
  745SOL    HW1 2324   2.656   1.489   1.928  1.4878 -1.0004  1.5995
  745SOL    HW2 2325   2.612   1.476   2.072 -2.0946  0.6288  0.7595
  746SOL     OW 2326   0.093   3.850   3.499  0.8674  0.9074 -0.1342
  746SOL    HW1 2327   0.015   3.830   3.550  0.7843 -2.5341 -1.3618
  746SOL    HW2 2328   0.166   3.839   3.561  0.5352  1.6282  0.3965
  747SOL     OW 2329   1.200   3.812   2.304 -0.2504  0.3941  0.2782
  747SOL    HW1 2330   1.245   3.894   2.285  1.5488 -0.4808  0.5869
  747SOL    HW2 2331   1.111   3.825   2.271  0.9456  1.2274 -2.8960
  748SOL     OW 2332   0.699   0.510   0.361 -0.1884 -0.2677 -0.0771
  748SOL    HW1 2333   0.714   0.435   0.304  1.8093 -0.1312  0.1941
  748SOL    HW2 2334   0.635   0.479   0.425 -1.0310 -1.0239 -1.2572
  749SOL     OW 2335   3.539   0.014   1.146 -0.2146 -0.4001  0.0735
  749SOL    HW1 2336   3.565   0.106   1.156 -0.4392 -0.3928  0.6509
  749SOL    HW2 2337   3.444   0.014   1.159 -0.8005 -0.2389 -3.3105
  750SOL     OW 2338   2.186   1.059   1.551  0.5360  0.0700  1.0667
  750SOL    HW1 2339   2.218   0.994   1.488 -0.3794  0.7746 -0.1726
  750SOL    HW2 2340   2.116   1.105   1.504  0.3059  1.0925  2.3668
  751SOL     OW 2341   1.890   3.367   0.285 -0.1145  0.6686  0.6189
  751SOL    HW1 2342   1.866   3.277   0.261 -0.4832  1.0146 -0.3256
  751SOL    HW2 2343   1.817   3.398   0.338 -0.3129  0.6500  0.3572
  752SOL     OW 2344   3.847   0.298   0.845 -0.7171  0.0770 -0.1264
  752SOL    HW1 2345   3.833   0.205   0.830 -0.3900  0.1978 -1.2179
  752SOL    HW2 2346   3.758   0.335   0.849 -0.8942 -0.4246  1.4532
  753SOL     OW 2347   2.944   0.271   2.570 -0.1911  0.1178 -0.2737
  753SOL    HW1 2348   3.031   0.310   2.572  0.0532 -0.4063 -0.4395
  753SOL    HW2 2349   2.941   0.224   2.486  1.1403 -3.8023  1.6183
  754SOL     OW 2350   1.532   0.589   2.483  0.5299  0.9126 -0.5820
  754SOL    HW1 2351   1.513   0.637   2.563 -2.5970 -1.4465  0.2898
  754SOL    HW2 2352   1.488   0.638   2.414  0.1537  1.0639 -0.2386
  755SOL     OW 2353   2.245   1.166   3.864 -0.6155 -0.0608 -0.1212
  755SOL    HW1 2354   2.180   1.179   3.796 -0.1860  1.6685 -0.2422
  755SOL    HW2 2355   2.286   1.083   3.843  0.5154  1.0901 -2.8513
  756SOL     OW 2356   1.159   2.632   3.776 -0.1215  0.0756  0.1022
  756SOL    HW1 2357   1.171   2.620   3.870 -1.4810  1.5087  0.4982
  756SOL    HW2 2358   1.095   2.702   3.769 -0.4233 -0.3441 -1.9035
  757SOL     OW 2359   2.298   3.389   0.072 -0.0274  0.0504  0.0285
  757SOL    HW1 2360   2.373   3.360   0.125  0.3289  2.0163  0.6954
  757SOL    HW2 2361   2.222   3.354   0.117  0.4254 -1.0418 -0.0217
  758SOL     OW 2362   0.769   2.027   3.599  0.2587 -0.0523 -0.6004
  758SOL    HW1 2363   0.730   1.964   3.538 -1.4608 -0.3387  0.7341
  758SOL    HW2 2364   0.713   2.023   3.677  0.3856  2.7797 -0.2724
  759SOL     OW 2365   2.892   2.495   0.721  0.0707  0.0861  0.4882
  759SOL    HW1 2366   2.889   2.528   0.631 -0.2154  0.7058  0.7184
  759SOL    HW2 2367   2.985   2.494   0.743  0.0756  0.9819  0.5555
  760SOL     OW 2368   3.737   1.876   2.900  0.3716  0.1228  0.0633
  760SOL    HW1 2369   3.663   1.932   2.875  2.3502  1.7491 -2.8217
  760SOL    HW2 2370   3.759   1.902   2.989 -0.8583  1.5226 -0.0077
  761SOL     OW 2371   1.870   3.287   1.906 -1.1108 -0.3300  0.1702
  761SOL    HW1 2372   1.829   3.255   1.986 -1.4510 -3.5575 -1.1462
  761SOL    HW2 2373   1.899   3.208   1.860  2.1654  1.5418 -1.3375
  762SOL     OW 2374   3.282   0.740   1.760  0.1902  0.0159  0.2031
  762SOL    HW1 2375   3.288   0.807   1.691  1.5886 -0.8438 -0.5429
  762SOL    HW2 2376   3.215   0.680   1.728  0.2142  0.0898  0.0072
  763SOL     OW 2377   0.565   1.618   2.990 -0.0604  0.4272  0.1013
  763SOL    HW1 2378   0.535   1.700   2.950  0.6641  0.7024  0.1013
  763SOL    HW2 2379   0.655   1.608   2.959  0.5614  0.6948  1.6973
  764SOL     OW 2380   1.348   0.287   2.277  0.3265 -0.3455  0.3855
  764SOL    HW1 2381   1.344   0.344   2.354  2.3862  0.8612 -0.3470
  764SOL    HW2 2382   1.270   0.308   2.227 -0.1740  0.0555  1.3067
  765SOL     OW 2383   1.146   0.090   0.008  0.0121 -0.7787 -0.0047
  765SOL    HW1 2384   1.220   0.152   0.002 -0.4862 -0.0259  1.2470
  765SOL    HW2 2385   1.183   0.007  -0.020  1.0355 -0.1747 -0.5423
  766SOL     OW 2386   2.997   3.378   3.557  0.4442  0.1959 -0.2350
  766SOL    HW1 2387   2.946   3.317   3.504  3.3316 -0.5955 -2.3448
  766SOL    HW2 2388   2.984   3.463   3.514  1.1021 -0.0591 -0.9593
  767SOL     OW 2389   0.879   1.835   2.480  0.0137  0.5744  0.1988
  767SOL    HW1 2390   0.923   1.871   2.402  1.6896  1.1890  1.3726
  767SOL    HW2 2391   0.946   1.838   2.548 -1.5082  0.3121  1.7577
  768SOL     OW 2392   2.181   0.216   1.657  0.4320  0.5300  0.6700
  768SOL    HW1 2393   2.158   0.232   1.748 -0.6824  1.3210  0.2608
  768SOL    HW2 2394   2.155   0.125   1.641  2.4269 -0.2957  1.6498
  769SOL     OW 2395   1.784   1.152   0.326 -0.6812  0.0730  0.2910
  769SOL    HW1 2396   1.779   1.057   0.332  0.8873 -0.0407  0.1614
  769SOL    HW2 2397   1.741   1.184   0.405 -0.5067 -0.7649  0.7259
  770SOL     OW 2398   2.174   1.587   3.884 -0.0171 -0.0655 -0.3962
  770SOL    HW1 2399   2.129   1.518   3.933  1.3921 -1.1013 -0.4842
  770SOL    HW2 2400   2.123   1.598   3.804 -0.2682 -1.0256 -0.3765
  771SOL     OW 2401   1.673   0.314   0.100  0.4102 -0.0136 -0.1791
  771SOL    HW1 2402   1.707   0.309   0.011  1.5597  1.3221  0.1360
  771SOL    HW2 2403   1.751   0.306   0.156 -0.4144 -2.0378  0.7755
  772SOL     OW 2404   0.500   1.702   2.407  0.0941  0.5557  0.2391
  772SOL    HW1 2405   0.562   1.669   2.342 -2.2704  1.9370 -3.0266
  772SOL    HW2 2406   0.460   1.624   2.445 -0.6256 -0.4312 -2.3311
  773SOL     OW 2407   2.235   1.083   0.635  0.8613  0.2332 -0.3627
  773SOL    HW1 2408   2.159   1.095   0.691  1.0986 -1.3641  0.3514
  773SOL    HW2 2409   2.304   1.136   0.676  0.5903  0.3686 -0.0785
  774SOL     OW 2410   0.005   3.819   0.340  1.0704  0.0809  0.7308
  774SOL    HW1 2411  -0.013   3.790   0.251  1.1649 -0.9055  1.0241
  774SOL    HW2 2412   0.101   3.825   0.344  1.1549 -1.3355  1.1994
  775SOL     OW 2413   1.550   1.656   2.021  0.1421 -0.2620  0.0162
  775SOL    HW1 2414   1.606   1.682   1.949 -1.1338 -0.5725 -1.1379
  775SOL    HW2 2415   1.603   1.670   2.100  2.1863 -1.4899 -1.0589
  776SOL     OW 2416   1.025   3.030   1.732  0.5315  0.4101  0.1087
  776SOL    HW1 2417   1.116   3.032   1.763  1.3676 -1.5469 -1.9579
  776SOL    HW2 2418   0.985   2.956   1.778  1.0155 -0.8459 -1.4146
  777SOL     OW 2419   0.183   0.347   3.214 -0.0208 -0.3482 -0.3320
  777SOL    HW1 2420   0.118   0.417   3.218 -0.6412 -0.9642  0.4717
  777SOL    HW2 2421   0.209   0.333   3.305  0.8101 -0.5248 -0.5828
  778SOL     OW 2422   3.555   3.045   1.267  0.4546 -0.0192 -0.6162
  778SOL    HW1 2423   3.474   3.029   1.219 -0.9076  2.2341  0.7275
  778SOL    HW2 2424   3.602   3.110   1.214  0.3077  0.3395 -0.3100
  779SOL     OW 2425   0.091   2.286   0.004  0.2043 -0.0835  0.0878
  779SOL    HW1 2426   0.066   2.366  -0.040  2.1575  0.8263  0.4862
  779SOL    HW2 2427   0.105   2.312   0.095 -2.5319 -1.6572  1.0850
  780SOL     OW 2428   1.703   3.096   2.184 -0.1477 -0.5240 -0.2626
  780SOL    HW1 2429   1.669   3.075   2.097 -0.8268 -1.5026  0.2132
  780SOL    HW2 2430   1.736   3.185   2.177 -1.6308 -0.0196 -1.1104
  781SOL     OW 2431   1.921   2.920   1.512 -0.1885  0.2095  0.2485
  781SOL    HW1 2432   1.930   2.832   1.548  0.3226  0.3415  0.4613
  781SOL    HW2 2433   2.000   2.932   1.459 -0.2794  0.5203  0.1814
  782SOL     OW 2434   3.656   3.205   2.619  0.4518  0.5909  0.3785
  782SOL    HW1 2435   3.723   3.266   2.586  0.8486  0.5426  1.0786
  782SOL    HW2 2436   3.698   3.119   2.615  0.3416  0.5282  0.5981
  783SOL     OW 2437   3.252   2.991   1.643  0.2604 -0.4739  0.1628
  783SOL    HW1 2438   3.235   3.076   1.683  0.2972 -0.5860  0.4169
  783SOL    HW2 2439   3.333   3.004   1.594 -0.2316 -0.1010 -0.5738
  784SOL     OW 2440   3.048   3.837   0.893  0.0812 -0.7418 -0.4413
  784SOL    HW1 2441   3.102   3.857   0.816 -0.0209  0.7152 -0.1699
  784SOL    HW2 2442   2.999   3.918   0.910 -1.0017 -1.5192  0.2780
  785SOL     OW 2443   0.322   3.176   3.008  0.3970 -0.0907 -0.1566
  785SOL    HW1 2444   0.410   3.143   2.990  0.0909 -0.5428 -0.9005
  785SOL    HW2 2445   0.330   3.223   3.090  1.2906 -0.3041 -0.1102
  786SOL     OW 2446   1.312   2.452   0.437 -0.6934 -0.3856  0.0057
  786SOL    HW1 2447   1.277   2.415   0.356 -2.0690  0.3460  0.2336
  786SOL    HW2 2448   1.235   2.477   0.487  0.1394  1.5660  0.4093
  787SOL     OW 2449   2.477   0.028   1.085 -0.0781  0.7475 -0.0605
  787SOL    HW1 2450   2.452  -0.063   1.069  0.4575  0.0312  2.6365
  787SOL    HW2 2451   2.394   0.073   1.103 -0.6807  1.5561 -4.0687
  788SOL     OW 2452   0.992   1.018   3.840  0.3874 -0.3139  0.1506
  788SOL    HW1 2453   0.999   1.008   3.745 -1.0041  0.1561 -0.0146
  788SOL    HW2 2454   0.939   0.944   3.868 -0.5786  0.4341  0.3420
  789SOL     OW 2455   2.146   2.367   3.368  0.0756 -0.3177 -0.0027
  789SOL    HW1 2456   2.208   2.379   3.296 -1.9870  0.2588 -1.8051
  789SOL    HW2 2457   2.185   2.298   3.422  2.7150  0.7143 -0.4563
  790SOL     OW 2458   0.624   0.413   1.276  0.1670  0.1608 -0.5750
  790SOL    HW1 2459   0.550   0.438   1.331 -0.1318 -0.1208 -0.8538
  790SOL    HW2 2460   0.607   0.453   1.191  1.2879  1.7338 -0.1065
  791SOL     OW 2461   3.839   1.183   0.311 -0.6180  0.2352 -0.3528
  791SOL    HW1 2462   3.822   1.178   0.217 -1.1539  1.7963 -0.3659
  791SOL    HW2 2463   3.916   1.127   0.324  1.0048  1.8760 -2.1323
  792SOL     OW 2464   0.801   2.783   1.091  0.1500 -0.0362  0.0442
  792SOL    HW1 2465   0.801   2.859   1.033  0.1058  0.5278  0.7739
  792SOL    HW2 2466   0.729   2.729   1.058  0.7282 -0.2028 -1.0203
  793SOL     OW 2467   1.775   0.970   2.900  0.5667 -0.0531  0.6638
  793SOL    HW1 2468   1.803   0.898   2.956 -1.6382 -1.9795 -0.5524
  793SOL    HW2 2469   1.681   0.980   2.919  0.1760  0.4584 -1.3287
  794SOL     OW 2470   3.031   2.415   3.630 -0.1095 -0.3598  0.2589
  794SOL    HW1 2471   3.038   2.332   3.678 -0.7585 -0.5184  0.0908
  794SOL    HW2 2472   3.028   2.389   3.538  0.0399 -0.1295  0.1892
  795SOL     OW 2473   1.245   1.627   0.260  0.3470  0.4294  0.5677
  795SOL    HW1 2474   1.293   1.683   0.321  0.5634 -0.6536  1.4379
  795SOL    HW2 2475   1.306   1.611   0.188 -0.1351  2.2510 -0.3150
  796SOL     OW 2476   1.843   3.224   1.506 -0.2959  0.0974  0.2172
  796SOL    HW1 2477   1.772   3.172   1.543  1.0773 -1.4976  0.7947
  796SOL    HW2 2478   1.917   3.163   1.502  1.2209  1.8419  0.2656
  797SOL     OW 2479   1.207   3.177   0.672  0.3873  0.0195  0.1306
  797SOL    HW1 2480   1.245   3.227   0.745  2.6168  0.7081 -1.3873
  797SOL    HW2 2481   1.185   3.243   0.607  0.3155 -0.7297 -0.6134
  798SOL     OW 2482   0.997   2.044   0.702  0.4811 -0.4684 -0.0204
  798SOL    HW1 2483   0.977   2.126   0.748 -1.2099 -0.4110 -0.7921
  798SOL    HW2 2484   1.027   2.072   0.616 -1.8451 -0.6194 -0.9520
  799SOL     OW 2485   3.579   3.704   0.111 -0.1710 -0.0804  0.3560
  799SOL    HW1 2486   3.592   3.610   0.110 -0.9906 -0.2029  0.8070
  799SOL    HW2 2487   3.523   3.722   0.036 -0.1395  0.0338  0.3585
  800SOL     OW 2488   3.048   2.339   2.605  0.3898 -0.3496 -0.1432
  800SOL    HW1 2489   3.086   2.251   2.593  1.2734  0.1559 -1.1845
  800SOL    HW2 2490   3.071   2.362   2.695  2.0873 -0.3038 -0.5588
  801SOL     OW 2491   3.719   0.994   2.221  0.4445  0.0503  0.2204
  801SOL    HW1 2492   3.648   1.046   2.259  0.5031  1.4595 -1.4800
  801SOL    HW2 2493   3.798   1.046   2.237  0.9085 -0.7929  0.7744
  802SOL     OW 2494   0.360   2.530   2.837  0.1826  0.0895 -0.3300
  802SOL    HW1 2495   0.447   2.548   2.802 -0.1273 -0.9321 -1.7245
  802SOL    HW2 2496   0.375   2.484   2.919  0.9827 -0.7182 -0.9087
  803SOL     OW 2497   0.665   3.342   1.042 -0.0155  0.3029 -0.2019
  803SOL    HW1 2498   0.710   3.281   1.101  0.6699  0.3908 -0.6170
  803SOL    HW2 2499   0.722   3.346   0.965 -0.7303  0.4392 -0.7311
  804SOL     OW 2500   0.635   0.871   1.372 -0.3931 -0.0410 -0.0980
  804SOL    HW1 2501   0.592   0.835   1.295 -2.2568  0.6009  0.5877
  804SOL    HW2 2502   0.644   0.796   1.432 -0.4921 -0.1993 -0.2823
  805SOL     OW 2503   0.875   0.387   3.849 -0.1786  0.5983  0.1112
  805SOL    HW1 2504   0.823   0.307   3.859 -0.7331  0.7581 -1.3618
  805SOL    HW2 2505   0.881   0.422   3.938 -0.2841 -0.8525  0.7186
  806SOL     OW 2506   0.773   1.499   0.348  0.5028 -0.1144 -0.1644
  806SOL    HW1 2507   0.864   1.487   0.322  1.0388 -0.8312  1.8371
  806SOL    HW2 2508   0.764   1.594   0.359  1.3661 -0.1124  0.7091
  807SOL     OW 2509   2.128   0.024   3.779  0.9119  0.0752  0.6506
  807SOL    HW1 2510   2.082   0.049   3.698 -0.8670  0.8784  1.8441
  807SOL    HW2 2511   2.220   0.018   3.753  0.1911 -1.6083 -1.8489
  808SOL     OW 2512   3.655   3.254   1.061  1.0173 -0.1760  0.0958
  808SOL    HW1 2513   3.571   3.300   1.066  0.7802 -0.5913 -0.0744
  808SOL    HW2 2514   3.720   3.324   1.071  0.7025  0.4480 -1.7502
  809SOL     OW 2515   3.735   0.179   3.235  0.1916 -0.0990  0.1610
  809SOL    HW1 2516   3.762   0.269   3.221 -0.1412 -0.0885 -0.4357
  809SOL    HW2 2517   3.780   0.128   3.167 -1.7205  0.0104 -1.2658
  810SOL     OW 2518   3.709   3.081   0.862  0.1216  0.0695 -0.0396
  810SOL    HW1 2519   3.669   2.999   0.891  0.6045 -0.7758 -1.6576
  810SOL    HW2 2520   3.689   3.143   0.932 -1.9039 -0.9289  0.3368
  811SOL     OW 2521   1.055   2.153   1.221 -0.6541  0.3789 -0.0053
  811SOL    HW1 2522   1.030   2.149   1.314  1.7574  0.7918  0.7337
  811SOL    HW2 2523   1.127   2.216   1.218  1.2520 -1.7185 -1.6517
  812SOL     OW 2524   0.480   1.509   2.029  0.3229  0.0974  0.1358
  812SOL    HW1 2525   0.529   1.567   2.088  1.2200 -0.9283  0.4323
  812SOL    HW2 2526   0.431   1.451   2.087  1.0799 -0.8076 -0.1043
  813SOL     OW 2527   2.260   2.092   3.776 -0.3773  0.1871 -0.1865
  813SOL    HW1 2528   2.247   1.999   3.754  0.9299 -0.6161  2.0681
  813SOL    HW2 2529   2.201   2.107   3.851  2.0328  0.0386  1.8755
  814SOL     OW 2530   1.194   2.225   3.210  0.2181  0.5028 -0.2892
  814SOL    HW1 2531   1.210   2.141   3.166 -0.3473  0.5964 -0.6888
  814SOL    HW2 2532   1.187   2.202   3.303 -1.1595 -0.0920 -0.5151
  815SOL     OW 2533   3.745   2.655   1.972 -0.4593 -0.4372 -0.3020
  815SOL    HW1 2534   3.708   2.573   2.006 -0.0758 -1.1056 -1.4279
  815SOL    HW2 2535   3.692   2.674   1.895 -1.3144  1.0468  0.6049
  816SOL     OW 2536   1.594   0.891   0.940  0.6721  0.4414 -0.3719
  816SOL    HW1 2537   1.605   0.986   0.945 -1.3411  0.6704  1.0809
  816SOL    HW2 2538   1.646   0.856   1.012 -0.8467  0.7552  0.9461
  817SOL     OW 2539   0.421   0.911   0.418 -0.3312  0.7280 -0.3252
  817SOL    HW1 2540   0.495   0.958   0.379 -0.4094 -0.1873 -1.6018
  817SOL    HW2 2541   0.423   0.824   0.379 -1.0432  0.0981  0.9538
  818SOL     OW 2542   2.167   0.412   0.407 -0.0879  0.3429 -0.5904
  818SOL    HW1 2543   2.131   0.396   0.495  1.5272  0.5285  0.1360
  818SOL    HW2 2544   2.250   0.456   0.423 -0.5639  1.9864 -2.2864
  819SOL     OW 2545   3.356   1.917   1.147  0.0524  0.5820  0.1224
  819SOL    HW1 2546   3.390   1.950   1.063 -0.4291 -0.0118 -0.3107
  819SOL    HW2 2547   3.410   1.960   1.213  1.0742  0.3280 -0.5264
  820SOL     OW 2548   1.750   3.256   3.328  0.0834 -0.0629 -0.1260
  820SOL    HW1 2549   1.765   3.343   3.292 -1.3045 -0.0101 -0.6372
  820SOL    HW2 2550   1.824   3.241   3.387  1.5605  0.5070 -1.7634
  821SOL     OW 2551   1.166   3.175   3.167 -0.0740  0.7344  0.0568
  821SOL    HW1 2552   1.158   3.080   3.176 -0.5914  0.7419 -0.3030
  821SOL    HW2 2553   1.117   3.196   3.088 -1.1916  1.4707  0.9050
  822SOL     OW 2554   3.433   1.417   3.213 -0.8226  0.2546  0.1821
  822SOL    HW1 2555   3.500   1.387   3.274 -0.7733 -1.2841 -0.5759
  822SOL    HW2 2556   3.474   1.409   3.127 -1.0129  2.0450 -0.1099
  823SOL     OW 2557   2.790   1.860   1.741 -0.2733 -0.1860 -0.8965
  823SOL    HW1 2558   2.753   1.933   1.692 -0.6593 -1.4098 -2.5074
  823SOL    HW2 2559   2.740   1.858   1.823 -1.1902  0.4821 -1.4303
  824SOL     OW 2560   3.843   3.192   0.230 -0.4750  0.0181  0.3334
  824SOL    HW1 2561   3.778   3.150   0.174 -1.4794 -3.4490  3.6677
  824SOL    HW2 2562   3.801   3.197   0.316  1.3713  3.9410  1.2112
  825SOL     OW 2563   3.694   0.744   2.069  0.7491 -0.2985  0.2441
  825SOL    HW1 2564   3.710   0.810   2.136  1.9269  0.3055 -0.6158
  825SOL    HW2 2565   3.603   0.758   2.043  0.8508  0.6955  0.3932
  826SOL     OW 2566   0.290   2.140   1.000 -0.0301  0.0821  1.0302
  826SOL    HW1 2567   0.289   2.064   0.943 -1.4222  0.6747  0.2019
  826SOL    HW2 2568   0.379   2.144   1.034  0.1315 -1.7633  0.9068
  827SOL     OW 2569   0.947   2.871   1.921  0.1155 -0.0989  0.0181
  827SOL    HW1 2570   0.884   2.801   1.937 -2.2173  1.9906  0.6483
  827SOL    HW2 2571   1.027   2.842   1.966 -0.4564 -2.6571 -0.4458
  828SOL     OW 2572   0.337   0.761   2.734  0.1537 -0.2772 -0.0224
  828SOL    HW1 2573   0.348   0.667   2.742  0.2508 -0.3033 -0.4192
  828SOL    HW2 2574   0.407   0.799   2.788  0.4840 -0.4346 -0.3382
  829SOL     OW 2575   0.190   1.650   1.942  0.5009 -0.0894 -0.3862
  829SOL    HW1 2576   0.135   1.613   2.011  0.7444  0.1283 -0.0798
  829SOL    HW2 2577   0.136   1.642   1.863  0.6268 -1.2935 -0.3743
  830SOL     OW 2578   0.964   3.342   1.288  0.2997 -0.5256  0.2351
  830SOL    HW1 2579   1.014   3.298   1.356 -1.4034  0.7911  2.4772
  830SOL    HW2 2580   0.897   3.278   1.262  0.2194 -0.6154  0.6634
  831SOL     OW 2581   1.852   3.620   1.518  0.0461  0.1547 -0.4947
  831SOL    HW1 2582   1.848   3.690   1.452  0.9955 -0.0529 -0.7887
  831SOL    HW2 2583   1.771   3.630   1.568 -0.6794  0.3382 -1.6655
  832SOL     OW 2584   3.464   1.928   2.898 -0.5490 -0.0799  0.0830
  832SOL    HW1 2585   3.470   2.021   2.876 -0.3145 -0.2985 -0.8168
  832SOL    HW2 2586   3.429   1.887   2.819 -0.0253 -0.8483  0.2365
  833SOL     OW 2587   1.366   3.287   0.915 -0.7126 -0.2379  1.1408
  833SOL    HW1 2588   1.374   3.382   0.906 -0.7808 -0.3752 -0.6743
  833SOL    HW2 2589   1.455   3.254   0.912 -0.7213 -0.2702  1.2342
  834SOL     OW 2590   0.954   2.818   1.360  0.4053  1.1045 -0.0976
  834SOL    HW1 2591   0.908   2.828   1.276 -0.3557 -0.7760  0.0651
  834SOL    HW2 2592   1.044   2.795   1.335 -0.6547 -3.3859 -0.5646
  835SOL     OW 2593   2.198   1.976   3.035  0.6542  0.2044  0.2505
  835SOL    HW1 2594   2.228   1.888   3.015  0.3200 -0.0110  0.6712
  835SOL    HW2 2595   2.127   1.963   3.099  1.6234  0.8536  1.5114
  836SOL     OW 2596   0.584   1.704   0.784 -0.3553 -0.0437 -0.2360
  836SOL    HW1 2597   0.555   1.640   0.848 -2.0531 -0.8065 -1.6840
  836SOL    HW2 2598   0.509   1.715   0.725  0.8049  1.3189 -1.5436
  837SOL     OW 2599   3.519   2.059   0.271  0.0291  0.0926  0.0081
  837SOL    HW1 2600   3.480   2.081   0.187  1.6088  2.2309 -0.2562
  837SOL    HW2 2601   3.445   2.054   0.332 -0.9743  0.2132 -1.1799
  838SOL     OW 2602   0.787   2.986   3.363  0.4641  0.4292 -0.3731
  838SOL    HW1 2603   0.733   2.937   3.301 -1.8187  2.3642 -0.0314
  838SOL    HW2 2604   0.806   2.924   3.433 -2.3886 -0.0552  0.0906
  839SOL     OW 2605   3.722   2.134   1.883 -0.3816  0.5101  0.5930
  839SOL    HW1 2606   3.764   2.133   1.797 -1.0663 -2.4552  0.1922
  839SOL    HW2 2607   3.628   2.128   1.864 -0.6635  1.4933  1.5687
  840SOL     OW 2608   0.803   0.331   0.981 -0.7245  0.2241 -0.3869
  840SOL    HW1 2609   0.795   0.238   1.001 -1.1999  0.0294 -1.4275
  840SOL    HW2 2610   0.895   0.343   0.957  0.0799  0.6126  2.4632
  841SOL     OW 2611   1.357   3.111   0.425 -0.3022 -0.0601  0.4538
  841SOL    HW1 2612   1.325   3.122   0.336  0.5110  1.0819  0.2862
  841SOL    HW2 2613   1.289   3.150   0.481  0.3650  1.5975  0.1541
  842SOL     OW 2614   0.113   0.626   3.299  0.1003  0.4136  0.3372
  842SOL    HW1 2615   0.181   0.623   3.366 -0.1824 -1.3713  0.6058
  842SOL    HW2 2616   0.136   0.700   3.244  1.8687  0.2711  0.8262
  843SOL     OW 2617   1.556   1.743   3.817  0.0743  0.0465  0.0442
  843SOL    HW1 2618   1.491   1.795   3.770  1.3467  0.7189 -1.0530
  843SOL    HW2 2619   1.517   1.657   3.825 -1.1750  0.5856 -0.0897
  844SOL     OW 2620   2.361   0.573   0.051 -0.1083  0.0935 -0.2376
  844SOL    HW1 2621   2.276   0.543   0.083 -0.1490 -0.3212 -0.7330
  844SOL    HW2 2622   2.371   0.660   0.088 -0.9830  0.3575 -0.6077
  845SOL     OW 2623   2.003   1.536   3.272 -0.6252  0.6380  0.3790
  845SOL    HW1 2624   1.936   1.468   3.277 -0.6349  0.5557 -0.6823
  845SOL    HW2 2625   2.083   1.489   3.248 -0.0210  0.6529  2.1740
  846SOL     OW 2626   3.110   3.455   2.246  0.4804 -0.2569 -0.6124
  846SOL    HW1 2627   3.026   3.489   2.277  0.1203  0.4664 -2.2625
  846SOL    HW2 2628   3.175   3.491   2.306 -0.3943 -1.1900  0.9652
  847SOL     OW 2629   1.586   2.529   3.848  0.2920  0.1719 -0.2586
  847SOL    HW1 2630   1.610   2.437   3.856  3.7585  0.6817 -2.6878
  847SOL    HW2 2631   1.510   2.529   3.789  0.3028 -1.1000 -0.2950
  848SOL     OW 2632   2.105   2.636   0.638  0.1925 -0.1354  0.4923
  848SOL    HW1 2633   2.134   2.645   0.547 -0.7822  2.2581  0.3251
  848SOL    HW2 2634   2.010   2.649   0.634  0.0416 -0.6819  1.7915
  849SOL     OW 2635   0.266   1.702   1.131  0.1385  0.2271  0.3207
  849SOL    HW1 2636   0.346   1.755   1.132 -0.0625  0.5588 -0.4756
  849SOL    HW2 2637   0.291   1.624   1.080  0.0105  0.2347  0.2481
  850SOL     OW 2638   3.400   1.748   3.109 -0.1537  0.8576  0.0186
  850SOL    HW1 2639   3.416   1.808   3.036  1.1650  1.0157  0.4113
  850SOL    HW2 2640   3.487   1.722   3.138 -0.6677 -1.2998 -0.1683
  851SOL     OW 2641   0.585   3.749   2.776 -0.8415  0.1850 -0.9801
  851SOL    HW1 2642   0.502   3.719   2.813 -0.4331  0.5994  0.3376
  851SOL    HW2 2643   0.615   3.677   2.721 -2.3934  0.3017 -2.0486
  852SOL     OW 2644   2.803   2.880   3.536  0.1661  0.0416  0.3265
  852SOL    HW1 2645   2.738   2.944   3.565 -0.4313 -0.5764  0.3650
  852SOL    HW2 2646   2.817   2.823   3.612  3.4337  2.2402  1.6160
  853SOL     OW 2647   0.034   3.162   3.779 -0.2212 -0.6253  0.0018
  853SOL    HW1 2648   0.067   3.105   3.848 -0.7114 -0.4902  0.3492
  853SOL    HW2 2649  -0.024   3.224   3.823  0.1646  0.0441 -0.3920
  854SOL     OW 2650   3.776   0.989   3.646  0.4333 -0.2090 -0.0382
  854SOL    HW1 2651   3.747   0.944   3.725  0.4458 -0.2782 -0.0733
  854SOL    HW2 2652   3.774   0.922   3.577 -0.3737  0.0478 -0.2739
  855SOL     OW 2653   0.795   3.359   3.026  0.0760  0.1396  0.3610
  855SOL    HW1 2654   0.874   3.305   3.020 -0.8033 -1.1563 -0.0437
  855SOL    HW2 2655   0.744   3.319   3.097 -1.3881 -0.6833 -1.0967
  856SOL     OW 2656   0.081   1.175   2.167 -0.2967 -0.5993  0.0628
  856SOL    HW1 2657   0.133   1.095   2.156 -0.0429 -0.5854  1.1034
  856SOL    HW2 2658   0.145   1.246   2.167 -0.4128 -0.4941  0.2723
  857SOL     OW 2659   0.936   3.196   3.439  0.6794 -0.0610  0.2167
  857SOL    HW1 2660   0.889   3.116   3.415  1.2054 -0.6947  1.2047
  857SOL    HW2 2661   0.880   3.267   3.410  0.7196 -0.7629 -1.7259
  858SOL     OW 2662   0.880   0.754   0.491  0.3532  0.3638 -0.0236
  858SOL    HW1 2663   0.963   0.710   0.506 -1.0453 -2.1214  1.1070
  858SOL    HW2 2664   0.817   0.707   0.547 -2.0885  1.1964 -1.8786
  859SOL     OW 2665   0.430   1.629   1.773 -0.6749  0.3516 -0.2585
  859SOL    HW1 2666   0.401   1.621   1.863 -2.0715  0.5956 -0.6626
  859SOL    HW2 2667   0.489   1.555   1.759  1.3007  1.5036  1.4663
  860SOL     OW 2668   3.677   3.474   0.353  0.5479 -0.3110 -0.8603
  860SOL    HW1 2669   3.772   3.477   0.342  0.6951 -0.3307  0.2305
  860SOL    HW2 2670   3.664   3.485   0.448 -0.4773 -1.2410 -0.8696
  861SOL     OW 2671   2.727   1.253   2.269  0.3438  0.2009 -0.2969
  861SOL    HW1 2672   2.677   1.235   2.190 -1.0560 -1.4509  0.8552
  861SOL    HW2 2673   2.818   1.242   2.244 -0.0223  0.4950 -1.8322
  862SOL     OW 2674   3.419   1.649   0.395  0.1925 -0.4021 -0.2249
  862SOL    HW1 2675   3.487   1.682   0.337  1.7039 -0.0171  1.6796
  862SOL    HW2 2676   3.393   1.725   0.448  0.4295 -1.1991  1.0792
  863SOL     OW 2677   3.841   3.800   0.914  0.3789 -0.3665 -0.6856
  863SOL    HW1 2678   3.754   3.818   0.879  1.3355  1.6838 -2.2541
  863SOL    HW2 2679   3.837   3.829   1.005 -0.2300  1.0325 -1.1284
  864SOL     OW 2680   2.973   3.431   2.814 -0.1225  0.0804 -0.3222
  864SOL    HW1 2681   3.013   3.516   2.797 -0.8887  0.5799  0.2844
  864SOL    HW2 2682   2.934   3.405   2.731 -2.1585  1.5749  0.0845
  865SOL     OW 2683   1.892   1.769   0.653  0.7624  0.2149  0.1085
  865SOL    HW1 2684   1.985   1.775   0.632  0.6309  0.3806 -0.4595
  865SOL    HW2 2685   1.874   1.846   0.707  1.2169 -0.4855  1.2787
  866SOL     OW 2686   1.566   1.325   3.028 -0.2437  0.2939 -0.7956
  866SOL    HW1 2687   1.492   1.385   3.028  0.8667  1.7284 -0.4402
  866SOL    HW2 2688   1.581   1.305   3.120 -1.3355 -1.5286 -0.9706
  867SOL     OW 2689   1.397   0.314   1.712  0.1635  0.1348 -0.2546
  867SOL    HW1 2690   1.360   0.296   1.626 -1.4356  0.0506  0.4097
  867SOL    HW2 2691   1.343   0.385   1.748  0.9349  0.3215  0.5926
  868SOL     OW 2692   1.514   3.285   3.442  0.0352  0.7129 -0.2856
  868SOL    HW1 2693   1.585   3.252   3.387  0.2369  0.8099 -0.0877
  868SOL    HW2 2694   1.559   3.328   3.515 -0.1944 -1.7783  1.4399
  869SOL     OW 2695   1.601   1.827   0.536 -0.0368  0.0152 -0.1039
  869SOL    HW1 2696   1.599   1.766   0.610  1.0394  0.2266  0.1206
  869SOL    HW2 2697   1.676   1.884   0.555  0.1058  0.2210 -1.2378
  870SOL     OW 2698   1.244   1.713   0.745 -0.7840  0.3653  0.0662
  870SOL    HW1 2699   1.185   1.781   0.778 -3.1441 -1.7096  0.4776
  870SOL    HW2 2700   1.247   1.727   0.650  0.5659  2.2891  0.3401
  871SOL     OW 2701   1.130   0.780   2.226  0.1685  0.0065  0.3792
  871SOL    HW1 2702   1.035   0.767   2.232  0.1950  0.1229  1.1536
  871SOL    HW2 2703   1.142   0.874   2.239  0.2492  0.3020 -1.6390
  872SOL     OW 2704   2.422   2.679   0.186  0.1239  0.5624  0.2148
  872SOL    HW1 2705   2.346   2.628   0.159  1.4061 -1.0567 -0.5219
  872SOL    HW2 2706   2.474   2.689   0.107  0.1029  2.7870  0.4073
  873SOL     OW 2707   3.751   1.979   0.499  0.4201  0.2118 -0.1183
  873SOL    HW1 2708   3.710   1.948   0.580  1.4034 -0.4962  0.1302
  873SOL    HW2 2709   3.807   1.906   0.472  0.0707  0.4183 -1.4694
  874SOL     OW 2710   2.556   1.216   1.809 -0.4582  0.3332 -0.2206
  874SOL    HW1 2711   2.537   1.296   1.858  0.1948  0.6661 -0.4940
  874SOL    HW2 2712   2.595   1.157   1.874 -1.0867  0.1680  0.0177
  875SOL     OW 2713   3.604   1.865   3.726 -0.0404  0.1065 -0.4334
  875SOL    HW1 2714   3.606   1.907   3.640 -0.5941 -0.2826 -0.6391
  875SOL    HW2 2715   3.695   1.848   3.746  0.1493  0.8178 -0.6371
  876SOL     OW 2716   1.338   1.817   0.464  0.3206 -0.0960 -0.9611
  876SOL    HW1 2717   1.302   1.890   0.414  0.1243  0.0357 -0.6358
  876SOL    HW2 2718   1.426   1.844   0.487 -0.5891  1.1933  1.3733
  877SOL     OW 2719   2.295   1.542   1.593 -0.3314  0.1936 -0.3899
  877SOL    HW1 2720   2.337   1.600   1.657 -2.1764  1.0216  0.1543
  877SOL    HW2 2721   2.309   1.454   1.627  0.6186  0.4704 -0.0371
  878SOL     OW 2722   1.792   2.871   1.266  0.0637  0.6033  0.0583
  878SOL    HW1 2723   1.819   2.932   1.334  0.5723 -1.0272  1.3979
  878SOL    HW2 2724   1.852   2.887   1.193  1.7924  0.0943  1.3142
  879SOL     OW 2725   2.737   2.083   1.565  0.5941  0.0471 -0.0811
  879SOL    HW1 2726   2.650   2.103   1.531  1.2728  2.8845 -0.4026
  879SOL    HW2 2727   2.795   2.146   1.522  2.6282 -0.9585  1.0193
  880SOL     OW 2728   3.137   1.805   1.970 -0.1432  0.4463 -0.1884
  880SOL    HW1 2729   3.130   1.852   1.886  1.1415  2.4647  0.7774
  880SOL    HW2 2730   3.054   1.758   1.976 -1.2163  1.9917 -1.6000
  881SOL     OW 2731   0.596   0.688   2.571  0.7486  0.1785  0.4669
  881SOL    HW1 2732   0.546   0.630   2.629 -1.4104  1.7675  0.2866
  881SOL    HW2 2733   0.550   0.685   2.488  1.7806  0.6540 -0.1448
  882SOL     OW 2734   3.601   0.989   3.878 -0.0034 -0.0658  0.3574
  882SOL    HW1 2735   3.518   0.953   3.847 -0.0024 -0.9490  1.3306
  882SOL    HW2 2736   3.578   1.071   3.922 -0.2171  0.2219 -0.2687
  883SOL     OW 2737   0.862   3.522   1.809 -0.9356 -0.2207  0.0995
  883SOL    HW1 2738   0.792   3.480   1.859  0.6680 -0.4165  2.3682
  883SOL    HW2 2739   0.925   3.452   1.793 -0.3390  0.3635 -0.1489
  884SOL     OW 2740   3.852   2.637   0.882  0.0451 -0.0103  0.4919
  884SOL    HW1 2741   3.763   2.605   0.896 -0.1638  0.2090 -0.2659
  884SOL    HW2 2742   3.883   2.589   0.806  0.0011  1.0237 -0.1969
  885SOL     OW 2743   3.159   0.008   0.649 -0.1285 -0.3537  0.1389
  885SOL    HW1 2744   3.142   0.014   0.555  2.1131 -0.6714 -0.3562
  885SOL    HW2 2745   3.184  -0.083   0.663  0.5327 -0.0795  0.8343
  886SOL     OW 2746   3.311   0.074   3.071 -0.1861  0.0291  0.2121
  886SOL    HW1 2747   3.300   0.107   3.160  0.1024  1.2910 -0.2138
  886SOL    HW2 2748   3.391   0.115   3.038 -1.0012  0.6472 -1.0947
  887SOL     OW 2749   3.318   1.508   1.379 -0.3270  0.3215  0.1407
  887SOL    HW1 2750   3.363   1.557   1.448 -0.6973  0.8208  0.0313
  887SOL    HW2 2751   3.292   1.426   1.422 -0.3022  0.5077  0.5155
  888SOL     OW 2752   2.183   3.143   2.542  0.3993 -0.1619  0.0784
  888SOL    HW1 2753   2.091   3.130   2.517  0.0173  0.6425  0.9740
  888SOL    HW2 2754   2.207   3.226   2.499  0.0127  0.7636  1.5842
  889SOL     OW 2755   3.352   2.441   2.008  0.0542 -0.2241 -0.1511
  889SOL    HW1 2756   3.371   2.472   1.920  1.0799 -0.4355 -0.0195
  889SOL    HW2 2757   3.290   2.505   2.044 -0.2366 -0.0479 -0.9579
  890SOL     OW 2758   2.255   2.683   3.815 -0.2288 -0.0435 -0.5740
  890SOL    HW1 2759   2.340   2.706   3.776  0.5083 -0.6967  0.5719
  890SOL    HW2 2760   2.247   2.588   3.801  1.2367 -0.8377  2.8433
  891SOL     OW 2761   3.136   2.294   3.097  0.8902 -0.0085  0.5285
  891SOL    HW1 2762   3.053   2.295   3.050  0.9558  0.0327  0.4133
  891SOL    HW2 2763   3.113   2.272   3.187  0.6783  0.7130  0.6541
  892SOL     OW 2764   0.906   0.896   1.423  0.1000  0.0086  0.3707
  892SOL    HW1 2765   0.941   0.942   1.347 -0.4738  0.2173  0.2300
  892SOL    HW2 2766   0.814   0.879   1.401  0.2777 -1.1357  0.4476
  893SOL     OW 2767   0.452   2.628   1.408  0.6106  0.2531 -0.0064
  893SOL    HW1 2768   0.413   2.653   1.324 -0.0335 -1.0027 -0.1065
  893SOL    HW2 2769   0.379   2.592   1.458  1.1324  0.3464  0.8425
  894SOL     OW 2770   1.723   1.610   3.289 -0.6350 -0.1461 -0.0399
  894SOL    HW1 2771   1.798   1.631   3.234 -1.4334  3.1249 -0.0597
  894SOL    HW2 2772   1.650   1.603   3.228 -0.9681  0.3510  0.2942
  895SOL     OW 2773   1.801   1.816   3.703 -0.4220  0.1134  0.2349
  895SOL    HW1 2774   1.758   1.810   3.788  0.7208 -1.3415  0.7395
  895SOL    HW2 2775   1.783   1.732   3.660 -1.0127  0.8360 -0.9938
  896SOL     OW 2776   2.267   2.176   3.522  0.8225 -0.1845  0.0846
  896SOL    HW1 2777   2.239   2.140   3.606  0.7785  0.4467  0.3409
  896SOL    HW2 2778   2.310   2.102   3.478 -1.4636 -1.2763 -0.4583
  897SOL     OW 2779   2.724   1.296   1.132 -0.0926 -0.6047 -0.0088
  897SOL    HW1 2780   2.817   1.280   1.119  0.3769  1.3835  0.6166
  897SOL    HW2 2781   2.701   1.244   1.209  1.1358  0.9105  1.4224
  898SOL     OW 2782   2.708   1.138   3.447  0.0564  0.6329 -0.7548
  898SOL    HW1 2783   2.739   1.182   3.527 -0.4633  0.9399 -0.7214
  898SOL    HW2 2784   2.739   1.048   3.456 -0.8470  0.4038  0.2698
  899SOL     OW 2785   1.613   2.065   3.198  0.0637 -0.5319 -0.4596
  899SOL    HW1 2786   1.626   2.120   3.121 -1.9160 -0.7407 -0.9929
  899SOL    HW2 2787   1.686   2.089   3.256  0.5728  0.9552 -1.6286
  900SOL     OW 2788   0.714   3.703   0.092  1.2248  0.0963  0.2752
  900SOL    HW1 2789   0.785   3.722   0.030  0.3697  0.1415 -0.7325
  900SOL    HW2 2790   0.755   3.708   0.178  2.5507 -0.3796 -0.3030
  901SOL     OW 2791   2.633   2.120   0.332  0.2788  0.1191 -0.1596
  901SOL    HW1 2792   2.666   2.077   0.411  2.3097  1.7146 -0.0643
  901SOL    HW2 2793   2.661   2.062   0.261  2.1205  0.7032  0.0371
  902SOL     OW 2794   0.819   2.162   3.355 -0.2101  0.0270  0.3916
  902SOL    HW1 2795   0.886   2.225   3.381  0.7336 -0.9665  0.4518
  902SOL    HW2 2796   0.803   2.110   3.435  0.2377 -0.8617 -0.0799
  903SOL     OW 2797   0.442   0.289   2.508 -0.8621 -0.0990 -0.1903
  903SOL    HW1 2798   0.382   0.241   2.451  0.5663  0.1519 -1.9895
  903SOL    HW2 2799   0.526   0.289   2.461  0.2747  0.5556  1.6962
  904SOL     OW 2800   3.591   2.663   1.757 -0.0942 -0.2124  0.5202
  904SOL    HW1 2801   3.596   2.698   1.668  0.1023 -0.0153  0.6056
  904SOL    HW2 2802   3.524   2.717   1.800 -1.1962 -1.2176  0.0946
  905SOL     OW 2803   0.990   1.838   2.928  0.0787  0.6428  0.8025
  905SOL    HW1 2804   0.978   1.910   2.865  0.2748 -0.2044 -0.2412
  905SOL    HW2 2805   1.085   1.835   2.942  0.6684 -2.0706 -2.5161
  906SOL     OW 2806   2.454   3.798   1.411 -0.6620 -0.3027 -0.0746
  906SOL    HW1 2807   2.447   3.890   1.437  1.4013  0.2676 -1.3129
  906SOL    HW2 2808   2.392   3.790   1.338 -0.8127  0.1207 -0.0004
  907SOL     OW 2809   1.041   0.708   3.596 -0.0801  0.0229 -0.2711
  907SOL    HW1 2810   1.042   0.633   3.656 -3.0432 -0.7189 -0.9707
  907SOL    HW2 2811   1.133   0.734   3.589  0.8336 -2.3012  1.5238
  908SOL     OW 2812   2.851   3.561   3.803 -0.5022 -0.0654 -0.0264
  908SOL    HW1 2813   2.899   3.490   3.844 -0.5309  0.3108  0.6703
  908SOL    HW2 2814   2.759   3.541   3.821 -0.5262 -0.0178 -0.0961
  909SOL     OW 2815   2.875   2.869   0.144  0.2271 -0.0619  0.1061
  909SOL    HW1 2816   2.816   2.943   0.127 -0.1527 -0.0015  1.4836
  909SOL    HW2 2817   2.854   2.843   0.234  0.4413 -1.7783 -0.3043
  910SOL     OW 2818   3.114   2.593   3.856  0.3060  0.0378  0.2766
  910SOL    HW1 2819   3.149   2.514   3.898 -0.3036 -0.5107 -0.2343
  910SOL    HW2 2820   3.066   2.561   3.780 -1.9551  0.6984  1.3427
  911SOL     OW 2821   0.129   2.949   0.049  0.1509  0.3403 -0.0032
  911SOL    HW1 2822   0.206   2.956   0.106  0.0549 -0.6377  0.2600
  911SOL    HW2 2823   0.155   2.889  -0.020 -0.4010 -0.0642  0.1358
  912SOL     OW 2824   0.557   3.172   1.461 -0.8855 -0.2561 -0.6599
  912SOL    HW1 2825   0.591   3.083   1.455 -0.2501 -0.1160  0.6746
  912SOL    HW2 2826   0.462   3.162   1.455 -0.7987 -0.9621 -1.0025
  913SOL     OW 2827   3.486   2.004   1.436  1.0665 -0.2718 -0.1388
  913SOL    HW1 2828   3.483   1.923   1.488  0.8660  0.0363  0.3367
  913SOL    HW2 2829   3.577   2.011   1.408  1.2966 -0.1800  0.6038
  914SOL     OW 2830   2.611   1.559   1.407 -0.0267 -0.2357  0.1657
  914SOL    HW1 2831   2.572   1.494   1.348 -0.0354  0.2434 -0.3771
  914SOL    HW2 2832   2.536   1.601   1.449 -0.1084  0.5592 -0.7399
  915SOL     OW 2833   3.707   1.666   0.462  0.1323 -0.4066  0.3436
  915SOL    HW1 2834   3.752   1.595   0.508 -0.8215 -2.2167 -1.3564
  915SOL    HW2 2835   3.638   1.693   0.522 -0.9728 -2.5957  0.1864
  916SOL     OW 2836   3.694   0.162   3.506 -0.5091 -0.0395  0.4891
  916SOL    HW1 2837   3.754   0.232   3.531  1.1131 -1.3077  0.3723
  916SOL    HW2 2838   3.702   0.157   3.411  1.2495 -1.8817  0.6689
  917SOL     OW 2839   0.787   0.356   2.114  1.1601  0.2145 -0.2117
  917SOL    HW1 2840   0.813   0.307   2.036 -0.1495 -1.7346  0.5038
  917SOL    HW2 2841   0.865   0.408   2.136  2.5248 -1.2758 -1.2374
  918SOL     OW 2842   0.921   0.461   0.661 -0.0505  0.4953  0.2471
  918SOL    HW1 2843   0.970   0.379   0.662 -0.2009  0.4036  0.1722
  918SOL    HW2 2844   0.982   0.525   0.624 -0.7109 -0.0875 -2.0616
  919SOL     OW 2845   1.171   2.540   3.067  0.6236 -0.2791 -0.1677
  919SOL    HW1 2846   1.103   2.473   3.077  0.2639  0.3867  2.3381
  919SOL    HW2 2847   1.201   2.558   3.156  0.4192  3.1958 -0.6677
  920SOL     OW 2848   3.493   1.959   1.813  0.0683 -0.4044 -0.3556
  920SOL    HW1 2849   3.415   2.014   1.808 -0.0169 -0.3172  1.3049
  920SOL    HW2 2850   3.464   1.881   1.862  0.7790 -0.8257 -0.5933
  921SOL     OW 2851   1.450   2.187   0.168 -0.1324 -0.9292  0.5228
  921SOL    HW1 2852   1.490   2.172   0.083  1.7340  2.0106  0.7469
  921SOL    HW2 2853   1.498   2.131   0.229 -0.6203 -2.0809 -0.1337
  922SOL     OW 2854   2.927   3.732   1.577  0.4210  0.2065  0.2846
  922SOL    HW1 2855   2.864   3.790   1.534 -1.6843 -1.6302  0.7445
  922SOL    HW2 2856   2.968   3.684   1.505  0.6413  0.7348  0.0476
  923SOL     OW 2857   2.383   3.490   2.020 -0.5562  0.1367  1.2772
  923SOL    HW1 2858   2.409   3.453   2.105 -0.3994  0.9520  1.5861
  923SOL    HW2 2859   2.386   3.415   1.960 -0.0192 -0.3112  1.8521
  924SOL     OW 2860   1.914   3.085   2.466  0.1548  0.1966 -0.0220
  924SOL    HW1 2861   1.825   3.110   2.491  0.6849  0.7885  1.4019
  924SOL    HW2 2862   1.904   3.037   2.384 -1.5517 -0.3425  0.4634
  925SOL     OW 2863   2.195   0.900   3.811  0.0572  0.2153 -0.1251
  925SOL    HW1 2864   2.237   0.875   3.894  1.3743  0.0972 -0.8025
  925SOL    HW2 2865   2.226   0.835   3.749 -0.0950  0.9094 -0.9368
  926SOL     OW 2866   0.485   1.273   3.680 -0.0301 -0.8980  0.5675
  926SOL    HW1 2867   0.438   1.315   3.608 -1.4335 -0.6294  1.6002
  926SOL    HW2 2868   0.560   1.232   3.638  0.3673  1.0254 -0.7553
  927SOL     OW 2869   0.804   1.161   3.360  0.0792  0.2841  0.2901
  927SOL    HW1 2870   0.743   1.110   3.307 -1.2717  1.5718  0.5247
  927SOL    HW2 2871   0.768   1.157   3.449  0.8221  0.3462  0.6000
  928SOL     OW 2872   1.061   3.333   1.779  0.2425  0.0518  0.4617
  928SOL    HW1 2873   1.030   3.246   1.754 -0.1548  0.8335 -2.0364
  928SOL    HW2 2874   1.154   3.333   1.757  0.6361 -0.2463  2.0286
  929SOL     OW 2875   1.269   1.824   2.853  0.2183  0.9892 -0.6892
  929SOL    HW1 2876   1.320   1.761   2.803 -1.1827 -0.0307 -0.8632
  929SOL    HW2 2877   1.333   1.891   2.879  1.6192 -0.2224 -0.9275
  930SOL     OW 2878   1.837   3.333   2.208  0.1763 -0.6205 -0.0402
  930SOL    HW1 2879   1.832   3.383   2.289  1.8865 -0.8397  0.2487
  930SOL    HW2 2880   1.820   3.397   2.139 -1.3108 -0.4386  0.4684
  931SOL     OW 2881   1.076   0.402   2.843 -0.5420 -0.1339  0.4243
  931SOL    HW1 2882   0.995   0.423   2.889 -1.1955  1.8501 -1.4371
  931SOL    HW2 2883   1.142   0.396   2.912 -1.8824  0.3377  1.8089
  932SOL     OW 2884   2.833   2.484   3.308 -0.2307 -0.2499 -0.8038
  932SOL    HW1 2885   2.758   2.488   3.367 -1.0150 -0.6737 -1.7479
  932SOL    HW2 2886   2.818   2.405   3.255  0.2482  0.3333 -1.8408
  933SOL     OW 2887   0.112   0.042   1.384  0.0497  0.8776  0.6678
  933SOL    HW1 2888   0.041   0.075   1.439 -0.9509  0.1673 -0.1712
  933SOL    HW2 2889   0.069   0.008   1.306  1.1276 -1.3741  0.9805
  934SOL     OW 2890   1.624   2.897   0.162  0.1514  0.1903 -0.1717
  934SOL    HW1 2891   1.569   2.830   0.204  0.9611 -0.3130  0.1026
  934SOL    HW2 2892   1.667   2.942   0.235  0.7260  0.0428 -0.4183
  935SOL     OW 2893   3.090   2.853   3.529  0.0041  0.0334 -0.1093
  935SOL    HW1 2894   3.067   2.793   3.458  0.7609 -0.1829 -0.1866
  935SOL    HW2 2895   3.007   2.892   3.556 -0.1136  1.3762 -2.2024
  936SOL     OW 2896   1.338   0.060   3.503  0.2637 -0.1466  0.3247
  936SOL    HW1 2897   1.253   0.038   3.465  0.7809 -0.3173 -0.7652
  936SOL    HW2 2898   1.401   0.012   3.450  1.2676  2.0894 -0.6828
  937SOL     OW 2899   2.844   1.173   2.932  0.0601 -0.4345 -0.2308
  937SOL    HW1 2900   2.753   1.150   2.912  0.4113 -0.3640 -2.0375
  937SOL    HW2 2901   2.892   1.091   2.928  0.4313 -0.1701 -1.4648
  938SOL     OW 2902   2.447   1.325   1.366 -1.2415  0.0067  0.4376
  938SOL    HW1 2903   2.426   1.294   1.278 -0.2023 -3.7246  1.3495
  938SOL    HW2 2904   2.366   1.316   1.415 -0.6312 -3.2314  1.0826
  939SOL     OW 2905   1.836   0.534   0.356 -0.4960  0.5781 -0.2328
  939SOL    HW1 2906   1.841   0.548   0.261 -2.1876  0.9500 -0.3020
  939SOL    HW2 2907   1.742   0.523   0.373 -0.3926  2.1280  1.6061
  940SOL     OW 2908   3.225   3.558   0.121  0.5616  0.4191 -0.0918
  940SOL    HW1 2909   3.269   3.594   0.198  2.3687 -0.1665 -0.7991
  940SOL    HW2 2910   3.167   3.629   0.092 -2.1595 -0.1612  3.1502
  941SOL     OW 2911   0.136   2.213   3.225 -0.0476 -0.1952  0.1381
  941SOL    HW1 2912   0.060   2.160   3.203  1.0233 -1.2433 -1.2041
  941SOL    HW2 2913   0.206   2.150   3.240  0.6509  0.7646  1.0364
  942SOL     OW 2914   3.503   1.168   2.282  0.6031  0.5071  0.1916
  942SOL    HW1 2915   3.550   1.214   2.213  4.0348  0.2844  2.1512
  942SOL    HW2 2916   3.458   1.237   2.330 -0.9049  0.7834 -1.5192
  943SOL     OW 2917   1.203   2.362   0.186  0.4260 -0.5781  0.2879
  943SOL    HW1 2918   1.127   2.308   0.205  1.2697 -2.8767 -2.2366
  943SOL    HW2 2919   1.275   2.300   0.177  2.1585  1.3164  0.4107
  944SOL     OW 2920   1.951   2.527   0.994 -0.7709 -0.3514 -0.0823
  944SOL    HW1 2921   1.965   2.542   1.088 -0.9228  0.0790 -0.1268
  944SOL    HW2 2922   2.031   2.558   0.952 -0.5192 -0.9638 -0.0583
  945SOL     OW 2923   0.907   1.886   1.858  0.1404 -0.3526  0.5290
  945SOL    HW1 2924   0.991   1.863   1.817  0.4865  0.9290  0.4643
  945SOL    HW2 2925   0.914   1.980   1.874 -1.5657 -0.1066 -0.0819
  946SOL     OW 2926   3.473   0.029   1.979  0.1452  0.6591  0.2196
  946SOL    HW1 2927   3.378   0.030   1.973  0.1369 -0.7157 -0.0142
  946SOL    HW2 2928   3.497  -0.063   1.981  1.5865  0.9278 -1.6911
  947SOL     OW 2929   0.804   0.160   1.902  0.1014 -0.2606 -0.1982
  947SOL    HW1 2930   0.774   0.075   1.935 -0.0446 -0.3158 -0.4666
  947SOL    HW2 2931   0.873   0.138   1.839  0.0996 -0.1785 -0.2288
  948SOL     OW 2932   3.617   3.026   1.688 -0.4640 -0.2626 -0.2135
  948SOL    HW1 2933   3.567   3.104   1.715  0.4351  0.5886 -0.9393
  948SOL    HW2 2934   3.671   3.005   1.764 -0.0072  0.4225 -0.3346
  949SOL     OW 2935   0.748   3.397   2.238  0.0303  0.3043 -0.1731
  949SOL    HW1 2936   0.764   3.342   2.161 -1.1637  0.5175 -0.5927
  949SOL    HW2 2937   0.669   3.360   2.278 -0.3780  1.2729 -0.0593
  950SOL     OW 2938   3.869   2.133   1.619  0.9288 -0.0523 -0.3381
  950SOL    HW1 2939   3.834   2.111   1.533  2.3655 -2.0586 -0.4958
  950SOL    HW2 2940   3.958   2.096   1.619  1.3181  0.7203  1.6759
  951SOL     OW 2941   2.385   0.437   0.732 -0.0407  0.0132  0.1792
  951SOL    HW1 2942   2.462   0.424   0.677  0.2534  0.3618  0.5029
  951SOL    HW2 2943   2.356   0.348   0.755 -0.2239 -0.1352 -0.6048
  952SOL     OW 2944   3.076   0.294   1.340  0.0177 -0.2144  0.1010
  952SOL    HW1 2945   3.061   0.364   1.277  0.9339  0.0657  0.1813
  952SOL    HW2 2946   3.048   0.331   1.424 -0.9990 -0.5135 -0.0871
  953SOL     OW 2947   1.419   3.509   0.241 -0.3194 -0.5221  0.1258
  953SOL    HW1 2948   1.382   3.596   0.227  0.2575 -0.4273 -0.9515
  953SOL    HW2 2949   1.368   3.452   0.183  2.4007 -0.0500 -3.0863
  954SOL     OW 2950   0.893   0.891   0.857 -0.2062  0.2936  0.3486
  954SOL    HW1 2951   0.922   0.978   0.885 -0.3404 -0.2799  2.4223
  954SOL    HW2 2952   0.957   0.831   0.894  0.5822 -0.4779 -2.0828
  955SOL     OW 2953   3.601   1.349   3.413 -0.7330  0.4628  0.2114
  955SOL    HW1 2954   3.543   1.285   3.454 -0.7004  0.7191  0.6595
  955SOL    HW2 2955   3.679   1.350   3.469  0.3184 -0.8870 -1.1211
  956SOL     OW 2956   1.948   3.314   1.271 -0.0478  0.2637 -0.3848
  956SOL    HW1 2957   2.015   3.378   1.298 -1.3989  1.4495  0.3350
  956SOL    HW2 2958   1.905   3.289   1.353  1.2115 -2.5614 -0.4881
  957SOL     OW 2959   1.038   3.257   2.897  0.1193  0.6884  0.3810
  957SOL    HW1 2960   0.961   3.254   2.841  1.1577 -2.6366 -1.1615
  957SOL    HW2 2961   1.093   3.325   2.859 -0.2407  0.1157 -1.2494
  958SOL     OW 2962   2.380   3.801   3.043 -0.1299 -0.2548  0.0035
  958SOL    HW1 2963   2.334   3.816   2.960 -1.9417  1.2003  1.1838
  958SOL    HW2 2964   2.460   3.853   3.035 -1.0798  1.2393 -0.2415
  959SOL     OW 2965   2.050   2.485   2.302  0.1353  0.2152  0.1630
  959SOL    HW1 2966   2.060   2.393   2.326 -1.6843 -0.3539 -0.9494
  959SOL    HW2 2967   2.037   2.531   2.385 -3.2010 -1.2367  0.6381
  960SOL     OW 2968   1.279   3.535   2.353 -0.1071  0.4256  0.4256
  960SOL    HW1 2969   1.216   3.605   2.363  0.5422  1.1844 -0.5590
  960SOL    HW2 2970   1.250   3.487   2.275  0.5759  0.8451 -0.0968
  961SOL     OW 2971   1.562   3.402   1.530  0.3087  0.2536 -0.1769
  961SOL    HW1 2972   1.623   3.427   1.599  0.7073 -0.5961 -0.2168
  961SOL    HW2 2973   1.517   3.484   1.508 -0.2473  0.4272  1.4886
  962SOL     OW 2974   2.498   0.844   1.966 -0.0811  0.0923  0.2439
  962SOL    HW1 2975   2.515   0.799   1.883 -1.5107 -0.2499  0.1112
  962SOL    HW2 2976   2.451   0.779   2.018 -0.3847  0.7588  0.8058
  963SOL     OW 2977   3.131   3.572   3.415 -0.8301  0.4595  0.4164
  963SOL    HW1 2978   3.170   3.631   3.351 -0.3586  2.3880  2.3400
  963SOL    HW2 2979   3.135   3.485   3.374  1.1676  1.3001 -1.3518
  964SOL     OW 2980   2.029   1.143   0.819  0.4791  0.3582 -0.4859
  964SOL    HW1 2981   2.075   1.124   0.901  0.5843  1.1671 -0.3564
  964SOL    HW2 2982   1.947   1.184   0.846  0.3670  0.3246 -0.7730
  965SOL     OW 2983   0.770   2.123   2.390  0.2051 -0.0799  0.8590
  965SOL    HW1 2984   0.758   2.045   2.444  1.1356  0.2017  1.5065
  965SOL    HW2 2985   0.838   2.098   2.328 -0.5854 -0.2743  0.0619
  966SOL     OW 2986   3.199   1.239   2.970  0.1478 -0.1744 -0.1700
  966SOL    HW1 2987   3.133   1.242   3.039 -0.4529 -2.8660 -0.5209
  966SOL    HW2 2988   3.177   1.313   2.912 -0.6661  0.7874  1.2950
  967SOL     OW 2989   1.542   2.283   1.388  0.0244 -0.0765 -0.0986
  967SOL    HW1 2990   1.586   2.208   1.347 -0.0036 -0.6243  0.8466
  967SOL    HW2 2991   1.457   2.248   1.416 -0.4665  0.6212 -0.6797
  968SOL     OW 2992   3.146   0.366   0.920 -0.0298  0.2204  0.9959
  968SOL    HW1 2993   3.111   0.430   0.858  0.7404 -1.3227 -1.1477
  968SOL    HW2 2994   3.072   0.309   0.939 -0.0348  0.1185  0.6875
  969SOL     OW 2995   0.645   1.801   1.994 -0.3098  0.1023  0.0232
  969SOL    HW1 2996   0.555   1.789   1.964  0.1768  0.6616 -1.7215
  969SOL    HW2 2997   0.697   1.742   1.940  0.4442  0.1111  0.7134
  970SOL     OW 2998   0.214   2.313   2.708  0.9088 -0.1230 -0.0647
  970SOL    HW1 2999   0.219   2.400   2.747 -0.6296 -0.5664  1.2065
  970SOL    HW2 3000   0.286   2.265   2.748  0.1270 -0.1997  1.2995
  971SOL     OW 3001   2.880   3.878   2.628  0.2136 -0.4800 -0.2832
  971SOL    HW1 3002   2.906   3.862   2.719 -0.1019 -1.8564 -0.4018
  971SOL    HW2 3003   2.808   3.940   2.634  0.1986 -0.5525  0.4127
  972SOL     OW 3004   0.583   0.262   3.771  0.2221 -0.0005  0.6780
  972SOL    HW1 3005   0.598   0.180   3.818 -0.5641  0.4775  1.7788
  972SOL    HW2 3006   0.489   0.265   3.757  0.5138 -0.6868 -2.0123
  973SOL     OW 3007   1.764   1.726   1.403  0.6564 -0.0978  0.2955
  973SOL    HW1 3008   1.834   1.781   1.438  0.5230  0.3801 -0.1770
  973SOL    HW2 3009   1.685   1.780   1.411  0.3990 -0.5043  0.5093
  974SOL     OW 3010   2.562   0.397   0.528  0.5707  0.1259  0.0141
  974SOL    HW1 3011   2.509   0.344   0.468 -0.7807  0.0279  1.2326
  974SOL    HW2 3012   2.653   0.376   0.505  0.0762 -0.9554 -1.0585
  975SOL     OW 3013   1.671   3.731   1.912 -0.0232 -0.4022  0.1617
  975SOL    HW1 3014   1.703   3.692   1.831 -1.9150 -1.4574 -0.1322
  975SOL    HW2 3015   1.587   3.770   1.889 -0.0807  0.2542  1.3891
  976SOL     OW 3016   1.240   0.884   1.239 -0.3374 -0.2467 -0.2977
  976SOL    HW1 3017   1.148   0.905   1.223 -0.8731  0.0140  2.6056
  976SOL    HW2 3018   1.286   0.966   1.224 -1.2066  0.7936  2.2174
  977SOL     OW 3019   2.915   2.683   1.852  0.3955 -0.4776 -0.1925
  977SOL    HW1 3020   2.878   2.720   1.932  1.1313 -0.0188 -0.0663
  977SOL    HW2 3021   3.009   2.677   1.868  0.4208 -1.4229 -0.6054
  978SOL     OW 3022   3.012   1.150   1.069 -0.0341  0.0132  0.2131
  978SOL    HW1 3023   3.055   1.171   1.152 -1.7734 -0.4645  1.2893
  978SOL    HW2 3024   3.053   1.067   1.042  2.1934  1.3085 -0.6850
  979SOL     OW 3025   3.511   1.256   0.202 -0.2670  0.0347  0.7314
  979SOL    HW1 3026   3.424   1.292   0.217 -0.5312 -0.8103  1.2409
  979SOL    HW2 3027   3.539   1.296   0.119 -0.9580  0.6330  0.7775
  980SOL     OW 3028   3.342   1.506   2.644 -0.3659 -0.4870 -0.1057
  980SOL    HW1 3029   3.402   1.446   2.687  0.9226  0.9772  0.2075
  980SOL    HW2 3030   3.271   1.518   2.707  0.2185 -0.3743  0.5447
  981SOL     OW 3031   0.318   3.029   2.146 -0.7503  0.1106 -0.1894
  981SOL    HW1 3032   0.329   2.960   2.081  1.0000  0.0449  0.1233
  981SOL    HW2 3033   0.231   3.065   2.128 -1.4608 -1.7697 -0.7250
  982SOL     OW 3034   3.577   0.371   0.893 -1.1920  0.1634 -0.6263
  982SOL    HW1 3035   3.498   0.338   0.935 -0.7235  0.3777  0.4584
  982SOL    HW2 3036   3.619   0.425   0.960 -0.6790  0.9345 -1.5447
  983SOL     OW 3037   1.930   2.363   0.550  0.8354 -0.4003  0.0456
  983SOL    HW1 3038   1.925   2.341   0.643 -0.6890 -1.9021 -0.3352
  983SOL    HW2 3039   2.015   2.330   0.522  2.1514  1.7532  1.2488
  984SOL     OW 3040   3.421   1.625   2.237 -0.7694 -0.1824 -0.2122
  984SOL    HW1 3041   3.445   1.678   2.314 -0.3253  0.2578 -0.6430
  984SOL    HW2 3042   3.326   1.614   2.244 -0.8724  0.7130 -0.1386
  985SOL     OW 3043   3.369   3.701   2.290  0.0904  0.0015  0.1873
  985SOL    HW1 3044   3.314   3.683   2.367 -0.4724 -1.3870 -0.5112
  985SOL    HW2 3045   3.309   3.697   2.216  1.2648 -2.8848 -0.7463
  986SOL     OW 3046   3.398   3.723   3.764  0.5337 -0.6928 -0.0908
  986SOL    HW1 3047   3.317   3.686   3.729  1.6410 -2.6057 -0.7983
  986SOL    HW2 3048   3.419   3.795   3.705  0.1916 -1.2344 -0.8959
  987SOL     OW 3049   2.758   3.150   1.946  0.0312 -0.1771 -0.3785
  987SOL    HW1 3050   2.761   3.056   1.965  1.1341  0.1736  1.4503
  987SOL    HW2 3051   2.846   3.181   1.968 -1.2565  1.8518  2.4889
  988SOL     OW 3052   2.420   2.683   3.195  0.2186  0.2059  0.5032
  988SOL    HW1 3053   2.458   2.769   3.212 -0.6238  0.5536  0.7019
  988SOL    HW2 3054   2.391   2.652   3.281 -2.1635  1.0486  0.0836
  989SOL     OW 3055   3.262   2.915   0.781  0.6505 -0.3042  0.2652
  989SOL    HW1 3056   3.193   2.867   0.735  0.3550 -0.1686  0.5622
  989SOL    HW2 3057   3.333   2.851   0.792 -0.4195 -1.2379  2.2562
  990SOL     OW 3058   3.863   1.551   3.059  0.2183  0.1811 -0.6781
  990SOL    HW1 3059   3.947   1.595   3.069 -0.1830  0.5673  1.5383
  990SOL    HW2 3060   3.798   1.621   3.068 -0.4090  0.0732 -3.4113
  991SOL     OW 3061   2.492   2.487   1.005  0.4958  0.0409 -0.5116
  991SOL    HW1 3062   2.484   2.540   0.926 -1.0321  0.2094 -0.2803
  991SOL    HW2 3063   2.583   2.496   1.032  0.4605  1.9380 -0.9132
  992SOL     OW 3064   2.821   1.894   3.291  0.1690 -0.3808  0.1733
  992SOL    HW1 3065   2.844   1.968   3.347  1.4526 -0.6721  0.0673
  992SOL    HW2 3066   2.742   1.857   3.330  0.5447 -0.0440  1.2831
  993SOL     OW 3067   0.870   3.666   2.517  0.2314  0.4881 -0.2177
  993SOL    HW1 3068   0.853   3.733   2.451  1.1601  0.3187 -0.6449
  993SOL    HW2 3069   0.889   3.716   2.597  0.8143  0.7334 -0.5058
  994SOL     OW 3070   1.957   1.773   2.464  0.6348  0.1579  0.1424
  994SOL    HW1 3071   1.880   1.805   2.512  1.4158 -0.0189  1.5579
  994SOL    HW2 3072   1.932   1.686   2.434  0.0279  0.3883 -0.0427
  995SOL     OW 3073   3.004   1.467   0.849 -0.2731  0.2072  0.2575
  995SOL    HW1 3074   2.945   1.528   0.805 -1.5267 -1.8601 -1.1469
  995SOL    HW2 3075   2.977   1.470   0.941 -0.9191  1.0703  0.0578
  996SOL     OW 3076   2.585   0.516   2.193 -0.0152 -0.6941 -0.0619
  996SOL    HW1 3077   2.506   0.568   2.205  0.1950 -0.2482 -0.5985
  996SOL    HW2 3078   2.574   0.476   2.106  1.0111  0.5535 -0.7958
  997SOL     OW 3079   3.663   0.911   1.247 -0.3713  0.4101 -0.5847
  997SOL    HW1 3080   3.681   1.001   1.221  0.3781  0.0605 -1.3285
  997SOL    HW2 3081   3.639   0.867   1.166 -2.6413  0.3581  0.0462
  998SOL     OW 3082   0.860   1.410   2.066 -0.0149  0.2272 -0.0167
  998SOL    HW1 3083   0.831   1.450   1.984 -1.6511 -0.7501  0.0399
  998SOL    HW2 3084   0.788   1.425   2.127  0.5495 -0.3503  0.8147
  999SOL     OW 3085   3.054   3.447   1.793  0.2854  0.2550 -0.0312
  999SOL    HW1 3086   2.976   3.493   1.760 -0.0282 -0.6864 -0.6433
  999SOL    HW2 3087   3.023   3.399   1.870  0.1752 -0.3928 -0.4760
 1000SOL     OW 3088   2.820   3.226   3.392 -0.0994 -0.0604  0.3605
 1000SOL    HW1 3089   2.731   3.207   3.423 -0.2261  0.2222  0.1787
 1000SOL    HW2 3090   2.846   3.148   3.344  0.2364 -0.6578  1.4628
 1001SOL     OW 3091   0.534   1.948   3.827 -0.0232 -0.4371  0.7575
 1001SOL    HW1 3092   0.490   1.865   3.808 -0.0438 -0.4539  0.8767
 1001SOL    HW2 3093   0.540   1.950   3.923 -1.8988  0.6861  0.8804
 1002SOL     OW 3094   3.600   3.627   1.434 -0.4512 -0.4890  0.1662
 1002SOL    HW1 3095   3.566   3.546   1.397 -0.4500  0.0963 -1.1843
 1002SOL    HW2 3096   3.694   3.614   1.439 -0.1672  0.1280 -2.0591
 1003SOL     OW 3097   2.336   0.921   1.340 -0.2323 -0.2650 -0.0809
 1003SOL    HW1 3098   2.415   0.957   1.379  1.9030 -1.8443 -2.6621
 1003SOL    HW2 3099   2.359   0.830   1.319 -2.2803 -0.3996 -2.0991
 1004SOL     OW 3100   0.496   1.836   1.045  0.5238 -0.4089 -0.0290
 1004SOL    HW1 3101   0.511   1.919   1.090  0.0851 -0.4101  0.1282
 1004SOL    HW2 3102   0.574   1.823   0.991  1.0625 -0.3997  0.7236
 1005SOL     OW 3103   2.951   2.978   2.573 -0.6368  0.3735 -0.3785
 1005SOL    HW1 3104   2.859   2.974   2.598 -0.5678 -1.0273 -0.2724
 1005SOL    HW2 3105   2.966   3.070   2.549 -2.3019  0.4296 -1.3395
 1006SOL     OW 3106   2.518   1.330   2.720 -0.3682 -0.6822  0.0319
 1006SOL    HW1 3107   2.525   1.278   2.800 -0.1140 -0.7138 -0.0086
 1006SOL    HW2 3108   2.424   1.332   2.700 -0.4608 -0.4518  0.4754
 1007SOL     OW 3109   1.537   1.700   1.180  0.0672 -0.4532  0.0709
 1007SOL    HW1 3110   1.537   1.606   1.199 -0.2979  0.0273  3.0649
 1007SOL    HW2 3111   1.478   1.737   1.246  1.3039  2.0177 -0.0948
 1008SOL     OW 3112   1.097   1.410   3.809  0.2202 -0.1445 -0.2988
 1008SOL    HW1 3113   1.094   1.488   3.754  0.3377 -0.7269 -1.1435
 1008SOL    HW2 3114   1.043   1.432   3.885  0.1768  0.7194 -0.5683
 1009SOL     OW 3115   1.695   0.893   3.449 -0.2814  0.3524  0.5124
 1009SOL    HW1 3116   1.721   0.801   3.437 -0.4729  0.1601  1.4858
 1009SOL    HW2 3117   1.654   0.917   3.366 -0.5039 -0.5354  0.3479
 1010SOL     OW 3118   0.186   0.901   2.154  0.2684  0.3937 -0.0310
 1010SOL    HW1 3119   0.217   0.858   2.234  1.0776  0.5892 -0.2257
 1010SOL    HW2 3120   0.147   0.830   2.103 -0.0792  0.2339  0.4474
 1011SOL     OW 3121   3.219   0.015   3.381 -0.2671  0.0775  0.2325
 1011SOL    HW1 3122   3.312   0.033   3.374 -0.3721  2.2337  2.7264
 1011SOL    HW2 3123   3.179   0.101   3.391 -2.3289 -0.8949  0.9820
 1012SOL     OW 3124   2.825   0.942   2.384 -0.0147 -0.0273  0.5820
 1012SOL    HW1 3125   2.776   0.861   2.389 -0.6011  0.0180 -2.4261
 1012SOL    HW2 3126   2.762   1.011   2.405 -0.9944 -0.0717 -1.8996
 1013SOL     OW 3127   1.818   2.102   2.162 -0.4806  0.4219  0.4296
 1013SOL    HW1 3128   1.887   2.037   2.175 -1.4202 -0.9422 -1.1405
 1013SOL    HW2 3129   1.792   2.127   2.250  0.4693 -0.7250  1.0619
 1014SOL     OW 3130   1.469   0.475   2.918  0.6265  0.6973 -0.2660
 1014SOL    HW1 3131   1.471   0.427   2.836  0.2323  2.0331 -1.1004
 1014SOL    HW2 3132   1.439   0.563   2.893 -2.3532  0.3940  1.6506
 1015SOL     OW 3133   0.638   2.618   0.943 -0.1265  0.0430  0.1767
 1015SOL    HW1 3134   0.671   2.528   0.941 -0.7763 -0.2369  1.0471
 1015SOL    HW2 3135   0.557   2.615   0.892 -0.5821 -0.0732  0.8843
 1016SOL     OW 3136   3.835   2.664   2.699  0.4254 -0.0406  0.0701
 1016SOL    HW1 3137   3.894   2.681   2.773  0.0900 -2.2930  0.9272
 1016SOL    HW2 3138   3.786   2.586   2.725 -3.9689  2.3909 -0.0114
 1017SOL     OW 3139   1.382   2.587   1.478  0.0333 -0.2530  0.4953
 1017SOL    HW1 3140   1.460   2.625   1.436  1.4347 -0.2869  2.9217
 1017SOL    HW2 3141   1.416   2.532   1.548 -2.1927 -0.1130  1.7861
 1018SOL     OW 3142   2.933   0.964   2.131  0.0480 -0.0983 -0.0162
 1018SOL    HW1 3143   2.901   0.981   2.220 -0.2904 -1.2239  0.0872
 1018SOL    HW2 3144   2.934   0.869   2.124 -1.4814 -0.0480 -1.7671
 1019SOL     OW 3145   2.636   2.612   1.284 -0.2098  0.7192 -0.1995
 1019SOL    HW1 3146   2.597   2.626   1.370  0.9423 -0.8053  0.6175
 1019SOL    HW2 3147   2.643   2.517   1.276  1.7391  0.8877 -1.0087
 1020SOL     OW 3148   2.236   3.042   0.049  0.2647  0.4881  0.0713
 1020SOL    HW1 3149   2.298   2.971   0.035 -0.8974 -0.2235 -1.8015
 1020SOL    HW2 3150   2.270   3.089   0.126  3.2042  0.2726 -0.9779
 1021SOL     OW 3151   1.722   0.121   0.476  0.3301  0.4464 -0.1205
 1021SOL    HW1 3152   1.758   0.169   0.401 -1.5460  0.2221 -1.2227
 1021SOL    HW2 3153   1.675   0.188   0.526  1.2533  0.5192  0.6856
 1022SOL     OW 3154   3.345   2.151   0.448  0.3588 -0.4425  0.2845
 1022SOL    HW1 3155   3.357   2.176   0.540  0.7225  0.9275 -0.1091
 1022SOL    HW2 3156   3.330   2.234   0.403 -2.1033 -1.2679 -0.5792
 1023SOL     OW 3157   1.218   1.235   0.952  0.0177  0.3363  0.9259
 1023SOL    HW1 3158   1.261   1.317   0.930 -0.8290  1.6288  3.6588
 1023SOL    HW2 3159   1.272   1.197   1.021 -1.6457  0.5957  2.4394
 1024SOL     OW 3160   2.538   1.505   3.606  0.2067  0.0083 -0.3229
 1024SOL    HW1 3161   2.511   1.543   3.690  1.7163  2.0243 -0.6881
 1024SOL    HW2 3162   2.519   1.411   3.616  0.4197  0.1568  2.3056
 1025SOL     OW 3163   1.805   0.014   0.710 -0.6424 -0.6272  0.5059
 1025SOL    HW1 3164   1.897  -0.005   0.692 -0.7850 -1.9832  1.1163
 1025SOL    HW2 3165   1.771   0.049   0.627  0.4442  0.0505  0.3258
 1026SOL     OW 3166   1.918   0.850   3.852 -0.1314 -0.3644 -0.1620
 1026SOL    HW1 3167   2.007   0.883   3.840 -0.1946  0.7009  1.7675
 1026SOL    HW2 3168   1.862   0.927   3.842 -0.4734 -0.2056  2.2107
 1027SOL     OW 3169   2.645   2.102   2.126  0.1166  0.0895 -0.2944
 1027SOL    HW1 3170   2.664   2.152   2.205 -0.1557 -0.3597  0.0579
 1027SOL    HW2 3171   2.709   2.133   2.062 -0.5180  1.4153 -0.3078
 1028SOL     OW 3172   0.650   1.293   2.270 -0.7039  0.7122  0.6247
 1028SOL    HW1 3173   0.585   1.329   2.331 -1.5271 -0.1282  0.2582
 1028SOL    HW2 3174   0.691   1.221   2.318  0.0026  1.2614  0.8682
 1029SOL     OW 3175   0.714   2.841   3.810 -0.2581  0.7976  0.0489
 1029SOL    HW1 3176   0.710   2.927   3.851 -1.8091  0.8602 -0.1642
 1029SOL    HW2 3177   0.671   2.853   3.725 -2.7172 -0.6510  0.9746
 1030SOL     OW 3178   1.007   3.132   3.695 -0.3784  0.4177 -0.1069
 1030SOL    HW1 3179   0.941   3.166   3.634  0.6896  1.7069 -0.6027
 1030SOL    HW2 3180   1.069   3.085   3.640  0.5811  1.5697 -0.0542
 1031SOL     OW 3181   3.829   2.370   2.732  0.3438  0.0469  0.0447
 1031SOL    HW1 3182   3.851   2.333   2.817 -0.4089  0.3578  0.3828
 1031SOL    HW2 3183   3.911   2.366   2.682  1.8658  3.1016  1.9370
 1032SOL     OW 3184   3.550   1.361   2.960 -0.4104  0.1181  0.0383
 1032SOL    HW1 3185   3.616   1.430   2.968  2.2558 -2.2559  0.0477
 1032SOL    HW2 3186   3.564   1.324   2.872 -2.6045  0.3018 -0.4502
 1033SOL     OW 3187   3.566   2.520   2.699  0.1466  0.4822 -0.3810
 1033SOL    HW1 3188   3.637   2.476   2.652  1.8216  2.3664  0.2413
 1033SOL    HW2 3189   3.502   2.542   2.631 -1.5309 -4.0058 -0.5464
 1034SOL     OW 3190   0.054   2.889   1.069 -0.6205 -0.0697 -0.4287
 1034SOL    HW1 3191   0.130   2.917   1.018 -0.4625  0.7141  0.2232
 1034SOL    HW2 3192  -0.008   2.857   1.003 -1.2574  2.8129 -1.4055
 1035SOL     OW 3193   1.328   1.519   1.754 -0.4461 -0.5882  0.0244
 1035SOL    HW1 3194   1.318   1.469   1.672  0.0009 -0.0108 -0.3943
 1035SOL    HW2 3195   1.343   1.452   1.821  1.3337 -0.9927 -0.7116
 1036SOL     OW 3196   3.390   0.618   0.985  0.4870  0.5485  0.1011
 1036SOL    HW1 3197   3.316   0.598   0.928  1.8242 -1.6507 -1.0050
 1036SOL    HW2 3198   3.463   0.635   0.925  1.6991 -0.8388  1.1076
 1037SOL     OW 3199   1.378   0.753   2.306 -0.1634 -0.2964 -0.4474
 1037SOL    HW1 3200   1.410   0.805   2.232 -0.9958 -1.2838 -1.5396
 1037SOL    HW2 3201   1.288   0.732   2.284 -0.3585 -0.8181  0.7549
 1038SOL     OW 3202   1.428   0.665   3.525 -0.1433  0.1889 -0.0133
 1038SOL    HW1 3203   1.374   0.742   3.539 -0.5560 -0.0932 -0.0140
 1038SOL    HW2 3204   1.461   0.641   3.611  3.0246  2.4919 -0.4033
 1039SOL     OW 3205   0.288   2.356   0.776 -0.1227 -0.5155  0.1307
 1039SOL    HW1 3206   0.235   2.289   0.732  1.4580 -1.8896  0.2305
 1039SOL    HW2 3207   0.289   2.329   0.867 -0.2755  0.2165  0.3551
 1040SOL     OW 3208   3.074   2.324   1.033 -0.5199  0.7254 -0.4429
 1040SOL    HW1 3209   3.121   2.347   0.953 -0.3763  2.7080  0.1569
 1040SOL    HW2 3210   3.060   2.229   1.026  0.6487  0.6303 -2.1687
 1041SOL     OW 3211   1.180   1.851   0.040 -0.2061 -0.2055  0.1965
 1041SOL    HW1 3212   1.124   1.779   0.068 -1.8046  0.7876 -0.2916
 1041SOL    HW2 3213   1.190   1.905   0.119 -0.9474  0.2292  0.0045
 1042SOL     OW 3214   0.897   0.573   1.163 -0.7436  0.2223 -0.0443
 1042SOL    HW1 3215   0.873   0.665   1.173 -0.4174  0.2621  0.4141
 1042SOL    HW2 3216   0.851   0.545   1.084  0.8771  1.3469 -1.4630
 1043SOL     OW 3217   2.065   3.070   0.685 -0.2359  0.4334 -0.4812
 1043SOL    HW1 3218   1.992   3.076   0.623 -0.5004  1.5944 -0.0795
 1043SOL    HW2 3219   2.053   3.144   0.744 -1.2826 -1.8544  2.4044
 1044SOL     OW 3220   0.211   1.086   0.413 -0.0680  0.4053 -0.4298
 1044SOL    HW1 3221   0.271   1.012   0.419 -2.0707 -1.2436  4.2614
 1044SOL    HW2 3222   0.263   1.162   0.436  1.2422 -0.0343 -1.7703
 1045SOL     OW 3223   0.952   3.406   2.457  0.3613 -0.3755 -0.1909
 1045SOL    HW1 3224   0.892   3.384   2.386 -1.4136 -1.6320  1.5870
 1045SOL    HW2 3225   0.925   3.493   2.486 -0.9840 -1.1109  0.8853
 1046SOL     OW 3226   1.291   0.456   0.814 -0.6754 -0.2935  0.4291
 1046SOL    HW1 3227   1.299   0.545   0.782  0.6804 -1.4626 -2.9489
 1046SOL    HW2 3228   1.362   0.446   0.878 -1.2769  1.1686  1.3754
 1047SOL     OW 3229   0.131   0.093   3.115  0.3234 -0.4972  0.6823
 1047SOL    HW1 3230   0.140   0.180   3.154  0.2536  0.3340 -1.0895
 1047SOL    HW2 3231   0.197   0.040   3.160  1.5878  0.9238  0.5808
 1048SOL     OW 3232   0.371   2.250   1.428  0.7138  0.3941 -0.1207
 1048SOL    HW1 3233   0.463   2.276   1.422  0.0620  2.9497 -0.2360
 1048SOL    HW2 3234   0.325   2.312   1.372 -1.1379 -0.7090  0.0802
 1049SOL     OW 3235   0.732   1.556   1.001 -0.7555 -0.5128 -0.0850
 1049SOL    HW1 3236   0.715   1.500   0.925  0.4198 -0.2984 -0.5332
 1049SOL    HW2 3237   0.795   1.620   0.970  0.8762 -1.2755  1.4184
 1050SOL     OW 3238   1.199   0.342   3.426 -0.6028 -0.2120 -0.0533
 1050SOL    HW1 3239   1.218   0.251   3.448 -1.3644 -0.5415 -0.7029
 1050SOL    HW2 3240   1.240   0.393   3.496  0.1925 -1.0257  0.0960
 1051SOL     OW 3241   1.812   2.429   0.303 -0.6891  0.5102  0.6729
 1051SOL    HW1 3242   1.849   2.387   0.380  1.4895 -0.1140 -0.6066
 1051SOL    HW2 3243   1.789   2.356   0.245 -0.2425  0.9805 -0.1177
 1052SOL     OW 3244   0.273   1.332   2.071 -0.4453 -0.3833  0.0310
 1052SOL    HW1 3245   0.294   1.276   1.997  0.9271 -2.0236  1.5853
 1052SOL    HW2 3246   0.231   1.409   2.032  0.9935 -0.7865 -2.5007
 1053SOL     OW 3247   0.104   2.604   0.433  0.2487  0.4820  0.7422
 1053SOL    HW1 3248   0.019   2.607   0.389  0.5488  2.7508  0.2062
 1053SOL    HW2 3249   0.141   2.691   0.421  2.5737 -0.3613  1.1746
 1054SOL     OW 3250   2.789   1.589   0.005 -0.0566 -0.1995 -0.5616
 1054SOL    HW1 3251   2.783   1.599  -0.090  2.9370 -1.2210 -0.9610
 1054SOL    HW2 3252   2.830   1.670   0.035 -1.2198  0.2280 -0.0612
 1055SOL     OW 3253   3.856   3.711   0.050 -0.2642 -0.0702  0.8092
 1055SOL    HW1 3254   3.861   3.662  -0.032  0.5178  0.0281  0.7834
 1055SOL    HW2 3255   3.764   3.733   0.060 -0.5660 -1.1727  0.6015
 1056SOL     OW 3256   2.907   0.522   1.255  0.7782 -0.2014 -0.4894
 1056SOL    HW1 3257   2.994   0.546   1.226  0.3694 -0.2456 -1.7823
 1056SOL    HW2 3258   2.855   0.602   1.247  1.0417  0.2856  1.8458
 1057SOL     OW 3259   2.243   2.213   2.851 -0.4801 -0.0459 -0.2545
 1057SOL    HW1 3260   2.223   2.130   2.895 -1.0177 -1.9298 -3.7077
 1057SOL    HW2 3261   2.158   2.242   2.817  0.0505  0.8151 -0.8612
 1058SOL     OW 3262   1.358   2.000   2.221 -0.3302 -0.4247 -0.5484
 1058SOL    HW1 3263   1.434   2.006   2.164 -0.2714 -2.0684 -0.7063
 1058SOL    HW2 3264   1.386   1.943   2.293 -1.4643 -1.3027 -0.7642
 1059SOL     OW 3265   1.188   1.941   1.993  0.1034 -0.0997  0.4334
 1059SOL    HW1 3266   1.252   1.960   2.061  1.7287 -0.6635 -0.8725
 1059SOL    HW2 3267   1.229   1.873   1.940 -1.2491  0.0889 -0.9224
 1060SOL     OW 3268   2.951   0.626   2.897 -0.8751  0.1812  0.2378
 1060SOL    HW1 3269   2.979   0.645   2.808 -2.5943  0.0977 -0.3495
 1060SOL    HW2 3270   2.892   0.551   2.889  1.7570 -2.3413  1.8990
 1061SOL     OW 3271   2.816   3.034   2.960  0.6078  0.3732 -0.3034
 1061SOL    HW1 3272   2.907   3.024   2.931  0.8321  2.2656 -0.3595
 1061SOL    HW2 3273   2.820   3.099   3.030 -0.8029  1.1868 -0.9325
 1062SOL     OW 3274   1.862   0.634   0.121  0.2257 -0.2461  0.6741
 1062SOL    HW1 3275   1.951   0.602   0.135 -0.0956 -1.4828  0.0734
 1062SOL    HW2 3276   1.872   0.711   0.066  0.9439 -0.1754  0.8885
 1063SOL     OW 3277   1.613   2.732   2.339 -0.1918  0.4256 -0.2417
 1063SOL    HW1 3278   1.616   2.814   2.389  1.1176  0.5351 -0.4718
 1063SOL    HW2 3279   1.703   2.718   2.310 -0.5466 -0.7023 -0.8592
 1064SOL     OW 3280   1.147   0.994   0.354 -0.4585  0.0249 -0.0357
 1064SOL    HW1 3281   1.228   1.045   0.359  1.2777 -2.2937 -1.9463
 1064SOL    HW2 3282   1.115   0.992   0.444  1.8818  0.6781  0.9040
 1065SOL     OW 3283   1.090   3.612   0.033  0.2589 -0.2143 -0.0582
 1065SOL    HW1 3284   1.049   3.645  -0.047 -0.8795  1.7948  1.2385
 1065SOL    HW2 3285   1.165   3.670   0.047  0.8585 -0.9925 -0.0410
 1066SOL     OW 3286   0.441   2.721   1.912 -0.0034  0.1247  0.0232
 1066SOL    HW1 3287   0.521   2.773   1.901 -0.2140  0.7619  1.2941
 1066SOL    HW2 3288   0.460   2.639   1.867  1.2042  0.4381 -0.0898
 1067SOL     OW 3289   0.322   1.058   3.019 -0.6622 -0.4651  0.4433
 1067SOL    HW1 3290   0.337   1.093   3.107 -0.6067  0.0109  0.2459
 1067SOL    HW2 3291   0.363   1.122   2.961 -3.8407  1.1874 -0.1845
 1068SOL     OW 3292   2.470   1.257   3.541 -0.0300  0.0395  0.5823
 1068SOL    HW1 3293   2.543   1.208   3.503 -1.9063 -2.8158  0.3443
 1068SOL    HW2 3294   2.402   1.191   3.556 -1.9283  2.2371  2.4765
 1069SOL     OW 3295   3.046   3.232   2.541 -0.1640  0.0520  0.0284
 1069SOL    HW1 3296   2.992   3.310   2.524  1.8501  1.1723 -1.7216
 1069SOL    HW2 3297   3.095   3.253   2.620  0.1713  0.4779 -0.2856
 1070SOL     OW 3298   3.303   3.207   0.421  0.3822 -0.5783  0.3073
 1070SOL    HW1 3299   3.311   3.200   0.516  2.2137 -1.0943  0.1442
 1070SOL    HW2 3300   3.281   3.119   0.392  0.3692 -0.5406  0.2021
 1071SOL     OW 3301   0.272   2.962   3.503 -1.2908  0.0062  0.1883
 1071SOL    HW1 3302   0.334   2.987   3.434 -1.3513 -2.9224 -1.0922
 1071SOL    HW2 3303   0.316   2.987   3.584  0.8502 -0.3906 -0.7624
 1072SOL     OW 3304   3.199   1.553   3.104  0.2734  0.4960  0.5028
 1072SOL    HW1 3305   3.255   1.477   3.122  0.6747  0.8058  0.5869
 1072SOL    HW2 3306   3.259   1.628   3.108  0.1450  0.6995 -0.9195
 1073SOL     OW 3307   2.608   1.368   0.394 -0.0146 -0.2995  0.2864
 1073SOL    HW1 3308   2.552   1.291   0.388 -1.4392  0.7736 -1.3736
 1073SOL    HW2 3309   2.689   1.336   0.433 -1.1264 -2.2833  1.1327
 1074SOL     OW 3310   2.566   3.447   2.540 -0.2597 -0.4473  0.4477
 1074SOL    HW1 3311   2.554   3.542   2.532 -0.0444 -0.3868  0.8019
 1074SOL    HW2 3312   2.518   3.424   2.620 -0.2666 -0.6282  0.3905
 1075SOL     OW 3313   2.382   1.762   1.730 -0.2738 -0.0924  0.1443
 1075SOL    HW1 3314   2.472   1.777   1.759 -0.4918 -1.0699  1.4735
 1075SOL    HW2 3315   2.383   1.780   1.636  1.1729  0.4608  0.2419
 1076SOL     OW 3316   2.352   3.394   1.493 -0.3203  0.0060  0.1735
 1076SOL    HW1 3317   2.324   3.366   1.580 -0.5946  0.3883  0.2103
 1076SOL    HW2 3318   2.284   3.454   1.463  0.5601  1.1289  0.3546
 1077SOL     OW 3319   3.852   3.720   2.917  0.3820  0.2566 -0.0503
 1077SOL    HW1 3320   3.924   3.661   2.893  0.8064 -0.3973  2.4941
 1077SOL    HW2 3321   3.896   3.803   2.937 -0.2898  2.0154 -4.5524
 1078SOL     OW 3322   1.516   3.098   0.694 -0.3655  0.1332  0.1726
 1078SOL    HW1 3323   1.423   3.111   0.674 -0.0087 -0.8944 -2.5086
 1078SOL    HW2 3324   1.530   3.004   0.682  1.1718  0.3720 -0.1084
 1079SOL     OW 3325   2.889   0.338   1.924 -0.4572  0.7801  0.2395
 1079SOL    HW1 3326   2.943   0.262   1.903 -0.3357  0.5991  1.1685
 1079SOL    HW2 3327   2.813   0.301   1.969 -0.8548  1.1272 -0.1485
 1080SOL     OW 3328   2.237   2.437   3.125  0.0823  0.1402  0.3932
 1080SOL    HW1 3329   2.201   2.514   3.169  0.2365  0.7475 -0.5123
 1080SOL    HW2 3330   2.313   2.469   3.077  1.5661 -1.0336  1.8392
 1081SOL     OW 3331   1.246   2.737   1.673 -0.2711  0.2686 -0.3779
 1081SOL    HW1 3332   1.279   2.707   1.588 -0.0755 -1.5103  0.2675
 1081SOL    HW2 3333   1.259   2.662   1.731 -0.8298  1.2821  1.1186
 1082SOL     OW 3334   0.485   2.403   3.063 -0.3034 -0.1994  0.3431
 1082SOL    HW1 3335   0.543   2.378   3.136 -0.1326 -0.7842  0.0105
 1082SOL    HW2 3336   0.465   2.320   3.019  0.2949  0.2330 -0.7972
 1083SOL     OW 3337   2.526   2.365   0.335 -0.1580 -0.1916 -0.3388
 1083SOL    HW1 3338   2.557   2.279   0.308  3.1696  0.4296  1.0016
 1083SOL    HW2 3339   2.516   2.360   0.430 -0.0236  0.8346 -0.2506
 1084SOL     OW 3340   1.879   0.418   3.046 -0.3923  0.2415  0.2179
 1084SOL    HW1 3341   1.887   0.389   2.955 -0.7630  1.1411 -0.1190
 1084SOL    HW2 3342   1.963   0.458   3.067 -0.2128 -0.2094  0.3645
 1085SOL     OW 3343   0.555   0.024   0.286 -0.2430 -0.5336 -0.3168
 1085SOL    HW1 3344   0.543  -0.038   0.214  0.1104 -2.0394  0.8583
 1085SOL    HW2 3345   0.648   0.017   0.309 -0.7937 -1.9401  1.8175
 1086SOL     OW 3346   2.074   0.409   2.032 -0.2679  0.5669  0.2805
 1086SOL    HW1 3347   2.051   0.449   1.948  0.0075 -0.2388 -0.1833
 1086SOL    HW2 3348   2.026   0.461   2.097 -1.4519  0.4348 -0.4705
 1087SOL     OW 3349   3.640   0.635   0.263  0.0720 -0.5010  0.2557
 1087SOL    HW1 3350   3.604   0.629   0.174  0.0758 -3.4813  0.3745
 1087SOL    HW2 3351   3.563   0.641   0.320 -0.0215 -1.0659  0.1884
 1088SOL     OW 3352   1.819   2.602   0.745 -0.8205  0.8131 -0.3201
 1088SOL    HW1 3353   1.845   2.561   0.827  1.7653 -0.1898 -1.5488
 1088SOL    HW2 3354   1.812   2.695   0.767 -0.8061  0.4912  1.1691
 1089SOL     OW 3355   0.549   2.085   0.836  0.2332  0.0932  0.3574
 1089SOL    HW1 3356   0.589   2.170   0.820 -0.4796  1.0001  2.8628
 1089SOL    HW2 3357   0.622   2.028   0.859  0.5728  0.4502  0.1820
 1090SOL     OW 3358   2.209   1.456   2.460 -0.1798 -0.1993  0.6618
 1090SOL    HW1 3359   2.256   1.502   2.530  0.0426  0.3178  0.1827
 1090SOL    HW2 3360   2.263   1.469   2.383 -0.7009 -0.2976  0.2756
 1091SOL     OW 3361   1.858   0.832   0.638 -0.1067  0.3714  0.0095
 1091SOL    HW1 3362   1.900   0.890   0.702 -1.6574  1.7066 -0.0953
 1091SOL    HW2 3363   1.813   0.767   0.692 -0.7927  1.0492  0.2798
 1092SOL     OW 3364   1.463   2.025   2.860  0.4986 -0.1199  0.4059
 1092SOL    HW1 3365   1.494   2.009   2.771  0.0474  1.4034 -0.0477
 1092SOL    HW2 3366   1.537   2.068   2.903  1.2155 -2.0505  1.2130
 1093SOL     OW 3367   3.879   1.497   2.037  0.4662  0.0599 -0.1964
 1093SOL    HW1 3368   3.824   1.420   2.056  0.5423  0.1018  0.2061
 1093SOL    HW2 3369   3.816   1.565   2.011  0.4655 -0.3858 -1.4228
 1094SOL     OW 3370   0.078   0.029   1.916  0.1397  0.0148 -0.4743
 1094SOL    HW1 3371   0.124   0.074   1.845 -0.9084 -0.2172 -1.3397
 1094SOL    HW2 3372   0.113   0.067   1.996  0.1768  1.4759 -1.1543
 1095SOL     OW 3373   0.666   2.599   1.604 -0.2070  0.5669 -0.0728
 1095SOL    HW1 3374   0.619   2.590   1.521  0.8885 -0.4847 -0.6039
 1095SOL    HW2 3375   0.737   2.661   1.585 -0.0671  0.4685  0.1260
 1096SOL     OW 3376   2.489   2.158   1.485  0.2547  0.5143 -0.5025
 1096SOL    HW1 3377   2.488   2.222   1.414 -1.3474  0.7207 -0.3304
 1096SOL    HW2 3378   2.400   2.123   1.488  0.5225 -0.1384  0.8224
 1097SOL     OW 3379   1.440   2.151   1.048  0.4379  0.4400  0.3986
 1097SOL    HW1 3380   1.516   2.097   1.027  0.5611  0.1958  1.4390
 1097SOL    HW2 3381   1.388   2.098   1.108  0.5089  1.4231  1.3671
 1098SOL     OW 3382   3.527   0.359   3.677  0.0180 -0.0129 -0.2602
 1098SOL    HW1 3383   3.451   0.403   3.715 -0.6507 -3.0598  2.3533
 1098SOL    HW2 3384   3.490   0.298   3.613  0.2436 -1.1707  0.6813
 1099SOL     OW 3385   2.460   0.890   0.719 -0.1661  0.0354  0.0099
 1099SOL    HW1 3386   2.374   0.876   0.679 -0.5479 -0.2938  0.8965
 1099SOL    HW2 3387   2.501   0.959   0.667  0.1273 -1.5832 -2.0676
 1100SOL     OW 3388   0.448   1.479   0.858  0.1436 -0.4199 -0.4728
 1100SOL    HW1 3389   0.368   1.515   0.822  0.4366  1.5841  0.7218
 1100SOL    HW2 3390   0.423   1.392   0.889 -1.0614 -0.5910 -1.8353
 1101SOL     OW 3391   1.973   0.002   1.609 -0.2355 -0.4070 -0.1178
 1101SOL    HW1 3392   1.930  -0.081   1.630 -1.2691  0.1915  0.1874
 1101SOL    HW2 3393   1.944   0.023   1.521  0.6620 -0.7520 -0.5101
 1102SOL     OW 3394   1.707   2.167   2.959 -0.0458  0.0710  0.0905
 1102SOL    HW1 3395   1.703   2.248   2.908 -0.0219  0.4283  0.6468
 1102SOL    HW2 3396   1.801   2.150   2.968 -0.0536 -0.2510 -0.3772
 1103SOL     OW 3397   1.470   2.759   2.677  0.2909  0.3931  0.0572
 1103SOL    HW1 3398   1.473   2.713   2.761 -1.3878 -2.3448 -1.2223
 1103SOL    HW2 3399   1.379   2.751   2.648  0.5560  2.2616 -1.5427
 1104SOL     OW 3400   2.355   0.616   2.868 -0.0471  0.5641 -0.2926
 1104SOL    HW1 3401   2.360   0.544   2.805 -1.0678  0.2221  0.0062
 1104SOL    HW2 3402   2.365   0.575   2.953 -0.4184  0.7947 -0.1338
 1105SOL     OW 3403   2.060   2.822   3.663 -0.2939  0.1421  0.4352
 1105SOL    HW1 3404   2.032   2.764   3.592 -0.7767 -0.7720  1.3573
 1105SOL    HW2 3405   2.136   2.778   3.701 -0.3939  0.3333  0.8617
 1106SOL     OW 3406   1.623   3.087   0.993  0.1377 -0.6717  0.3465
 1106SOL    HW1 3407   1.645   3.179   0.977 -0.8037 -0.3910  0.6132
 1106SOL    HW2 3408   1.558   3.066   0.926 -0.7907 -0.6850  1.2326
 1107SOL     OW 3409   2.012   1.947   3.869  0.0206  0.0063 -0.1980
 1107SOL    HW1 3410   1.937   1.943   3.928 -0.8240  0.3623 -1.2268
 1107SOL    HW2 3411   1.988   1.891   3.795  0.6963  0.2605 -0.6209
 1108SOL     OW 3412   3.240   0.362   2.827 -0.0624 -0.5936  0.5820
 1108SOL    HW1 3413   3.179   0.341   2.897  0.0018 -1.5543  0.3630
 1108SOL    HW2 3414   3.306   0.417   2.868  0.3486 -1.6959  1.4612
 1109SOL     OW 3415   3.047   2.807   0.647  0.1230 -0.1857  0.4432
 1109SOL    HW1 3416   3.011   2.892   0.623  0.5489 -0.3964 -1.0401
 1109SOL    HW2 3417   3.029   2.751   0.572  0.6828 -1.1497  1.0062
 1110SOL     OW 3418   0.840   0.068   1.087  0.4301  0.5323 -0.2413
 1110SOL    HW1 3419   0.933   0.090   1.083  0.3858  0.8477  0.2651
 1110SOL    HW2 3420   0.838  -0.026   1.102  0.7173  0.7656  1.4697
 1111SOL     OW 3421   2.207   3.746   0.500 -0.1387 -0.9158 -0.4351
 1111SOL    HW1 3422   2.159   3.813   0.451  1.1251  1.8118  1.7579
 1111SOL    HW2 3423   2.292   3.741   0.457 -0.3083 -1.2899 -0.7303
 1112SOL     OW 3424   1.388   2.190   1.850  0.1061  0.0245  1.0595
 1112SOL    HW1 3425   1.445   2.255   1.809  0.7103 -1.0460  0.1117
 1112SOL    HW2 3426   1.440   2.156   1.924 -0.4680  1.0497  1.9540
 1113SOL     OW 3427   0.388   2.251   0.495  0.3585 -0.1996  0.3193
 1113SOL    HW1 3428   0.323   2.310   0.456  0.9129  0.0110 -0.3123
 1113SOL    HW2 3429   0.460   2.308   0.521  0.9453 -0.5993 -0.3882
 1114SOL     OW 3430   0.072   0.701   2.495  0.3146 -0.3234 -0.1402
 1114SOL    HW1 3431   0.119   0.626   2.532 -0.3194 -0.2097  0.9134
 1114SOL    HW2 3432  -0.010   0.706   2.544 -1.1499 -0.9055 -2.3713
 1115SOL     OW 3433   2.815   3.069   0.334  0.0942  0.1727  0.1633
 1115SOL    HW1 3434   2.860   3.072   0.419  0.0141  0.7424  0.1873
 1115SOL    HW2 3435   2.881   3.097   0.271  0.1817 -0.3426  0.0207
 1116SOL     OW 3436   0.475   0.183   0.496  0.0215  0.2082  0.6265
 1116SOL    HW1 3437   0.554   0.221   0.534  1.0594  0.3531 -1.5377
 1116SOL    HW2 3438   0.506   0.107   0.447 -1.5989 -1.4956  2.0638
 1117SOL     OW 3439   0.311   0.542   3.466  0.3381 -0.1761 -0.5750
 1117SOL    HW1 3440   0.321   0.580   3.553 -2.3499 -1.8939  0.6389
 1117SOL    HW2 3441   0.382   0.478   3.459 -1.3606 -2.6027  2.0215
 1118SOL     OW 3442   3.420   2.954   2.654  0.0878  0.0368 -0.0386
 1118SOL    HW1 3443   3.398   2.983   2.566  0.9779 -0.2348 -0.3610
 1118SOL    HW2 3444   3.340   2.913   2.686  0.5793 -2.6623 -1.8999
 1119SOL     OW 3445   1.376   0.047   1.154 -1.1382  0.5538  0.3493
 1119SOL    HW1 3446   1.441   0.093   1.099  1.9576 -1.3384  2.1442
 1119SOL    HW2 3447   1.383   0.090   1.239 -1.2610 -0.5272  0.9137
 1120SOL     OW 3448   2.686   0.320   3.553 -0.7013  0.4885  0.0568
 1120SOL    HW1 3449   2.624   0.366   3.609  1.1640  0.3615  2.3629
 1120SOL    HW2 3450   2.718   0.387   3.492 -1.1622  1.1791  0.5640
 1121SOL     OW 3451   2.496   0.498   3.656  0.0438  0.0865  0.2745
 1121SOL    HW1 3452   2.571   0.534   3.703  0.6148  0.1165 -0.6454
 1121SOL    HW2 3453   2.421   0.516   3.713  0.6239  0.7590  0.8405
 1122SOL     OW 3454   0.469   2.138   1.999 -0.2481  0.2709 -0.0949
 1122SOL    HW1 3455   0.555   2.105   1.972  0.0668  0.3175  0.8346
 1122SOL    HW2 3456   0.447   2.204   1.934 -0.5749 -1.2465 -1.6146
 1123SOL     OW 3457   2.201   1.427   3.104 -0.3749 -0.2424  0.1398
 1123SOL    HW1 3458   2.250   1.506   3.079 -0.5052 -0.4968 -0.9959
 1123SOL    HW2 3459   2.179   1.386   3.020 -0.9994 -1.0653  0.6973
 1124SOL     OW 3460   3.582   1.796   0.254 -0.0454  0.5443 -0.1601
 1124SOL    HW1 3461   3.664   1.762   0.217  0.3864  1.3399  0.0596
 1124SOL    HW2 3462   3.602   1.885   0.281 -0.5500  0.2351  1.3500
 1125SOL     OW 3463   2.565   1.885   1.914  0.3638  0.1697  0.3579
 1125SOL    HW1 3464   2.516   1.848   1.988 -0.4950  0.6194  0.0288
 1125SOL    HW2 3465   2.536   1.976   1.910  0.5748  0.2063 -0.3904
 1126SOL     OW 3466   1.250   1.751   3.439 -0.0300  0.0784  0.0217
 1126SOL    HW1 3467   1.338   1.767   3.403  0.0286 -1.2411 -0.4445
 1126SOL    HW2 3468   1.190   1.772   3.367 -0.1369  1.3366  0.4551
 1127SOL     OW 3469   3.030   1.921   0.312 -0.0696  0.3487 -0.2025
 1127SOL    HW1 3470   2.994   1.952   0.395 -0.1475  0.1405 -0.1574
 1127SOL    HW2 3471   3.114   1.882   0.335  0.4675  1.3704 -0.3903
 1128SOL     OW 3472   2.418   0.235   2.321  0.3631 -0.5931  0.1660
 1128SOL    HW1 3473   2.383   0.146   2.314  0.6026 -0.6603 -0.2666
 1128SOL    HW2 3474   2.513   0.222   2.327  0.3675 -0.3836  0.5322
 1129SOL     OW 3475   1.987   0.500   1.791  0.4250  0.2860 -0.2060
 1129SOL    HW1 3476   1.931   0.447   1.734  0.5034  1.6213 -1.5537
 1129SOL    HW2 3477   1.951   0.588   1.785  0.4455  0.4788  1.8255
 1130SOL     OW 3478   0.167   2.736   3.383 -0.4143  0.4114 -0.8998
 1130SOL    HW1 3479   0.223   2.712   3.309  0.8066  0.7618 -0.1254
 1130SOL    HW2 3480   0.221   2.797   3.435 -1.0456 -0.1976  0.5276
 1131SOL     OW 3481   0.449   0.534   1.029  0.2343  0.4034 -0.0635
 1131SOL    HW1 3482   0.400   0.462   1.069 -0.1193  0.8870  0.3836
 1131SOL    HW2 3483   0.477   0.500   0.944 -1.6804  0.4271 -0.7473
 1132SOL     OW 3484   2.413   1.390   0.069  0.2393 -0.0655 -0.7212
 1132SOL    HW1 3485   2.381   1.309   0.029  0.2009 -0.4591  0.0828
 1132SOL    HW2 3486   2.338   1.422   0.119  0.9613 -0.8008  0.8806
 1133SOL     OW 3487   3.590   2.527   1.528 -0.2259  0.5694 -0.1216
 1133SOL    HW1 3488   3.677   2.560   1.547  0.2160 -0.4732 -0.2651
 1133SOL    HW2 3489   3.605   2.451   1.472 -1.0234 -1.3439  2.0829
 1134SOL     OW 3490   0.230   2.759   2.078 -0.1603 -0.1127 -0.0319
 1134SOL    HW1 3491   0.239   2.689   2.143 -1.5992  1.0355  1.4938
 1134SOL    HW2 3492   0.306   2.749   2.020 -0.0229 -2.5629  0.4644
 1135SOL     OW 3493   0.121   0.809   0.068  0.4235  0.0078  0.3662
 1135SOL    HW1 3494   0.203   0.822   0.117 -0.2003  1.6927  1.0525
 1135SOL    HW2 3495   0.056   0.860   0.117 -0.5189  0.6564 -1.4727
 1136SOL     OW 3496   3.103   0.290   3.036 -0.1984  0.1257  0.5021
 1136SOL    HW1 3497   3.148   0.212   3.069  0.5844  1.0498  1.6945
 1136SOL    HW2 3498   3.043   0.315   3.107 -1.8952 -0.4814 -0.6481
 1137SOL     OW 3499   0.851   0.838   3.284  0.1318  0.0094 -0.0057
 1137SOL    HW1 3500   0.859   0.752   3.325  1.0671 -0.3584 -0.9165
 1137SOL    HW2 3501   0.757   0.856   3.282 -0.0488 -0.8447  0.4781
 1138SOL     OW 3502   1.911   1.495   2.382  0.0281 -0.2948 -0.1751
 1138SOL    HW1 3503   1.900   1.431   2.311  0.0814 -1.0079  0.4453
 1138SOL    HW2 3504   2.005   1.492   2.402 -0.2054 -1.1563  0.8784
 1139SOL     OW 3505   0.956   1.144   0.865  0.3739 -0.3623  0.1646
 1139SOL    HW1 3506   1.029   1.190   0.906  0.8789 -1.1704  0.1873
 1139SOL    HW2 3507   0.901   1.214   0.830  2.5955  0.2828 -2.3863
 1140SOL     OW 3508   3.867   1.409   2.304  0.1987 -0.1396  0.0739
 1140SOL    HW1 3509   3.913   1.329   2.281 -0.1306 -0.2613 -0.1678
 1140SOL    HW2 3510   3.852   1.401   2.398 -0.7393 -0.8459 -0.1178
 1141SOL     OW 3511   0.295   0.293   3.794 -0.7564  0.0098 -0.4543
 1141SOL    HW1 3512   0.218   0.305   3.737 -0.5074 -4.0706 -1.9790
 1141SOL    HW2 3513   0.275   0.215   3.845  3.0303 -2.4980 -2.3752
 1142SOL     OW 3514   0.983   1.392   2.379  0.1160  0.3761  0.0493
 1142SOL    HW1 3515   1.072   1.359   2.368 -0.3918 -1.6491  1.4683
 1142SOL    HW2 3516   0.984   1.478   2.335  2.1293 -0.5315 -1.8882
 1143SOL     OW 3517   3.306   2.238   1.191  0.3092  0.3570  0.4981
 1143SOL    HW1 3518   3.273   2.222   1.279 -0.6311 -0.5819 -0.0021
 1143SOL    HW2 3519   3.236   2.209   1.133  1.0712  0.5765 -0.5762
 1144SOL     OW 3520   1.220   2.775   1.311 -0.1230 -0.2918 -0.6201
 1144SOL    HW1 3521   1.236   2.737   1.225 -0.1371 -0.5944 -0.4906
 1144SOL    HW2 3522   1.271   2.721   1.372  0.3079  0.2385 -0.4969
 1145SOL     OW 3523   0.535   2.975   1.136  0.0556 -0.3167 -0.4006
 1145SOL    HW1 3524   0.468   3.030   1.095 -0.5791  0.4511  1.5153
 1145SOL    HW2 3525   0.617   2.999   1.092 -0.2386  2.0400  0.1960
 1146SOL     OW 3526   2.629   0.237   3.860  0.3668 -0.1513 -0.4929
 1146SOL    HW1 3527   2.702   0.224   3.921  0.1197 -1.2728 -0.4072
 1146SOL    HW2 3528   2.626   0.156   3.809 -1.6712 -0.7392  0.4562
 1147SOL     OW 3529   0.270   3.853   0.357 -0.3963 -0.4324 -0.4927
 1147SOL    HW1 3530   0.310   3.773   0.390 -1.0836 -0.4989  0.2265
 1147SOL    HW2 3531   0.344   3.907   0.329  0.1094 -1.0692 -0.4013
 1148SOL     OW 3532   1.336   3.320   1.692 -0.3790  0.4448 -0.2208
 1148SOL    HW1 3533   1.329   3.224   1.684  1.9116 -0.0031  2.0710
 1148SOL    HW2 3534   1.419   3.342   1.651 -0.9131  1.5161 -0.7820
 1149SOL     OW 3535   2.053   2.236   2.416 -0.7214  0.1111  0.8874
 1149SOL    HW1 3536   2.055   2.260   2.508 -2.1678  1.1261  0.6955
 1149SOL    HW2 3537   1.964   2.205   2.401 -0.7159  0.6083 -0.3031
 1150SOL     OW 3538   3.123   2.804   0.137 -0.3413  0.0409  0.6311
 1150SOL    HW1 3539   3.133   2.749   0.060  0.9198  1.2991 -0.1578
 1150SOL    HW2 3540   3.037   2.845   0.127 -0.0062  0.5264 -0.3606
 1151SOL     OW 3541   3.825   3.062   2.348  0.1771  0.3347  0.6110
 1151SOL    HW1 3542   3.802   2.971   2.329  1.0279  0.3531 -0.6885
 1151SOL    HW2 3543   3.890   3.057   2.418 -1.0972  0.0740  1.7980
 1152SOL     OW 3544   2.836   2.982   3.265  0.1466  0.3004  0.0808
 1152SOL    HW1 3545   2.831   2.911   3.201  2.8703 -0.3640  0.4829
 1152SOL    HW2 3546   2.842   2.938   3.350 -0.1512  1.0749  0.5179
 1153SOL     OW 3547   1.707   3.502   1.182 -0.2759 -0.4435 -0.0911
 1153SOL    HW1 3548   1.769   3.450   1.233  1.4142  1.7599  0.3106
 1153SOL    HW2 3549   1.621   3.479   1.218  0.6279 -0.9168  1.9578
 1154SOL     OW 3550   3.313   0.956   1.595  0.2189 -0.1705  0.0403
 1154SOL    HW1 3551   3.367   0.910   1.531 -0.1702 -0.8591  0.1982
 1154SOL    HW2 3552   3.343   1.047   1.590  1.6428 -0.5966  0.3834
 1155SOL     OW 3553   0.051   3.523   2.249  0.0269 -0.3137  0.3609
 1155SOL    HW1 3554   0.118   3.551   2.187  0.1379 -2.5800 -0.6149
 1155SOL    HW2 3555  -0.026   3.577   2.226  1.7559  3.4608  2.5043
 1156SOL     OW 3556   3.074   2.246   2.310 -0.7267  0.3317 -0.5317
 1156SOL    HW1 3557   3.082   2.178   2.376  1.4877 -0.1399 -1.1956
 1156SOL    HW2 3558   3.117   2.210   2.232  1.5465  2.8323 -0.5940
 1157SOL     OW 3559   2.211   3.344   3.706 -0.4139 -0.5750  0.2245
 1157SOL    HW1 3560   2.160   3.423   3.689 -0.6435 -0.6704  0.4520
 1157SOL    HW2 3561   2.219   3.342   3.802 -0.7815 -1.0561  0.2509
 1158SOL     OW 3562   2.199   3.317   0.774 -0.2127 -0.1115 -0.0771
 1158SOL    HW1 3563   2.271   3.267   0.814  0.3977  0.6697 -0.1770
 1158SOL    HW2 3564   2.243   3.384   0.722 -0.9931  2.0201  1.8628
 1159SOL     OW 3565   0.084   1.750   2.829 -0.7650 -0.3745 -0.0261
 1159SOL    HW1 3566   0.083   1.683   2.760 -2.8409 -1.1844  0.7126
 1159SOL    HW2 3567   0.006   1.803   2.811  0.8241  1.9387 -0.6015
 1160SOL     OW 3568   0.356   1.812   0.122  0.0135 -0.5087 -0.1134
 1160SOL    HW1 3569   0.269   1.830   0.157  0.3974 -2.4600  2.1121
 1160SOL    HW2 3570   0.343   1.740   0.061  0.1254 -1.3530  0.8320
 1161SOL     OW 3571   3.299   2.923   0.311  0.3958 -0.4621 -0.0705
 1161SOL    HW1 3572   3.267   2.847   0.359 -0.1551  0.1743  0.5779
 1161SOL    HW2 3573   3.277   2.904   0.220 -0.2391 -0.8340  0.1509
 1162SOL     OW 3574   3.281   0.625   3.110  0.4709 -0.1707  0.4084
 1162SOL    HW1 3575   3.286   0.615   3.014 -0.4659  0.2549  0.3039
 1162SOL    HW2 3576   3.193   0.594   3.132  0.5898 -0.0169  1.1054
 1163SOL     OW 3577   3.661   0.515   1.122  0.5860  0.0101  0.1385
 1163SOL    HW1 3578   3.729   0.494   1.186  1.2052 -1.2362 -0.8758
 1163SOL    HW2 3579   3.582   0.528   1.175  1.7395  2.4207  1.4221
 1164SOL     OW 3580   2.135   1.248   0.372  0.2411  0.0848  0.0507
 1164SOL    HW1 3581   2.126   1.154   0.389 -0.1134  0.1999  0.5059
 1164SOL    HW2 3582   2.061   1.288   0.418 -0.8589  0.3889 -1.8649
 1165SOL     OW 3583   0.096   2.861   1.468 -0.2580  0.3620  0.0705
 1165SOL    HW1 3584   0.091   2.900   1.555  1.5489 -3.0544  1.9246
 1165SOL    HW2 3585   0.190   2.854   1.450 -0.4927 -2.0017 -0.5718
 1166SOL     OW 3586   1.333   2.507   1.811 -0.0066  0.0439 -0.1344
 1166SOL    HW1 3587   1.289   2.423   1.800 -1.8679  1.0452 -0.7795
 1166SOL    HW2 3588   1.417   2.485   1.850 -0.8557 -2.0179  0.6646
 1167SOL     OW 3589   3.004   3.559   0.905 -0.0075 -0.4759  0.4850
 1167SOL    HW1 3590   3.074   3.624   0.909  0.7651 -1.2071 -0.4526
 1167SOL    HW2 3591   2.923   3.610   0.908  0.5212  0.3367  2.4707
 1168SOL     OW 3592   3.399   2.278   1.539  0.4931 -0.0478  0.1469
 1168SOL    HW1 3593   3.492   2.301   1.539  0.4054  0.3253  0.2005
 1168SOL    HW2 3594   3.394   2.191   1.500  0.7765  0.2844 -0.6353
 1169SOL     OW 3595   1.046   3.691   3.232 -0.6272 -0.1987  0.1412
 1169SOL    HW1 3596   1.096   3.633   3.175  0.0222  1.1726 -0.7332
 1169SOL    HW2 3597   0.955   3.669   3.214 -0.3960 -0.8009 -0.3308
 1170SOL     OW 3598   1.895   1.745   1.162 -0.4799 -0.6540 -0.3922
 1170SOL    HW1 3599   1.982   1.743   1.200 -0.7406 -0.8769  0.2010
 1170SOL    HW2 3600   1.838   1.710   1.230 -1.1100  0.0129 -0.5609
 1171SOL     OW 3601   3.860   1.035   1.559  0.1142 -0.1561  0.3077
 1171SOL    HW1 3602   3.940   1.087   1.563 -0.4912  1.0517 -1.5819
 1171SOL    HW2 3603   3.862   0.980   1.637  1.2640  2.0364  1.9354
 1172SOL     OW 3604   0.043   3.437   0.126 -0.0727 -0.0141  0.6374
 1172SOL    HW1 3605  -0.003   3.355   0.146  0.0880  0.1144  1.6037
 1172SOL    HW2 3606   0.093   3.456   0.206  0.4345  0.6636  0.1693
 1173SOL     OW 3607   0.963   3.728   1.595  0.0754 -0.2251 -0.5652
 1173SOL    HW1 3608   0.924   3.640   1.590 -0.3572 -0.0323 -0.6013
 1173SOL    HW2 3609   0.889   3.787   1.591  0.2474  0.1146  0.7728
 1174SOL     OW 3610   0.548   3.815   1.510  0.0231 -0.0072 -0.2316
 1174SOL    HW1 3611   0.587   3.849   1.430  0.0760  1.4450  0.3920
 1174SOL    HW2 3612   0.620   3.813   1.573 -0.1243 -0.7096 -0.0688
 1175SOL     OW 3613   0.191   1.567   0.105 -0.5106 -0.7637 -0.0107
 1175SOL    HW1 3614   0.100   1.597   0.103 -0.5285 -0.8032  0.1920
 1175SOL    HW2 3615   0.185   1.475   0.130 -0.4567 -0.9443 -0.6404
 1176SOL     OW 3616   2.176   3.587   1.854  0.8531 -0.4721 -0.0362
 1176SOL    HW1 3617   2.237   3.563   1.923  1.1955  0.0179 -0.1574
 1176SOL    HW2 3618   2.163   3.507   1.803 -0.2474 -1.1391  1.2124
 1177SOL     OW 3619   1.535   1.466   0.355  0.1135 -0.2303  0.3411
 1177SOL    HW1 3620   1.503   1.538   0.301  0.7372 -0.0252  0.2455
 1177SOL    HW2 3621   1.523   1.495   0.445 -2.0052 -1.0198  0.3840
 1178SOL     OW 3622   3.873   3.043   3.533 -0.5406 -0.4609 -0.4287
 1178SOL    HW1 3623   3.965   3.020   3.537 -0.5795 -0.5138  0.2216
 1178SOL    HW2 3624   3.858   3.098   3.610 -0.9958 -0.2542 -0.6593
 1179SOL     OW 3625   2.894   2.347   2.959  0.1128 -0.4469  0.5817
 1179SOL    HW1 3626   2.821   2.341   3.020  0.6237 -0.5281  1.1950
 1179SOL    HW2 3627   2.859   2.397   2.885 -0.5566 -0.4756  0.8668
 1180SOL     OW 3628   3.191   1.969   3.067  0.5415  0.0096 -0.2647
 1180SOL    HW1 3629   3.250   2.029   3.113 -2.4698  0.6300  3.2696
 1180SOL    HW2 3630   3.225   1.882   3.088  2.5224  0.3119 -1.8978
 1181SOL     OW 3631   1.109   0.493   3.784  0.4308  0.4209  0.3629
 1181SOL    HW1 3632   1.015   0.474   3.774  0.1745  1.4273  0.6998
 1181SOL    HW2 3633   1.126   0.477   3.877  0.4418  0.8686  0.4369
 1182SOL     OW 3634   3.403   2.198   0.727  0.7400 -0.1200  0.2716
 1182SOL    HW1 3635   3.451   2.167   0.804  0.9251 -1.7543 -0.4730
 1182SOL    HW2 3636   3.465   2.256   0.682  0.6940  0.6969  1.2199
 1183SOL     OW 3637   0.145   0.396   2.962 -0.2263 -0.2673  0.2852
 1183SOL    HW1 3638   0.224   0.359   2.923 -0.1991  0.3804 -0.2698
 1183SOL    HW2 3639   0.150   0.370   3.054  0.8966  0.2128  0.3720
 1184SOL     OW 3640   1.931   1.543   0.993  0.1762  0.1801  0.2367
 1184SOL    HW1 3641   1.899   1.625   1.029 -0.8699 -0.6755  1.3298
 1184SOL    HW2 3642   1.997   1.513   1.057  0.0181 -0.1934  0.2272
 1185SOL     OW 3643   1.005   2.952   2.237 -0.1273 -0.1729  0.1147
 1185SOL    HW1 3644   0.920   2.941   2.279 -0.3726  1.0168 -0.0446
 1185SOL    HW2 3645   1.066   2.902   2.292 -1.1959 -2.6782 -0.8444
 1186SOL     OW 3646   3.615   2.750   2.981  0.1365 -0.4327  1.0401
 1186SOL    HW1 3647   3.527   2.732   2.949  0.4109 -1.0978  0.6343
 1186SOL    HW2 3648   3.661   2.666   2.974  1.6886  0.4922 -1.6258
 1187SOL     OW 3649   2.619   3.864   3.746  0.1486  0.3388  0.1375
 1187SOL    HW1 3650   2.690   3.833   3.690  0.5909  0.8855  0.3851
 1187SOL    HW2 3651   2.637   3.825   3.832 -0.3686 -0.2690 -0.0300
 1188SOL     OW 3652   3.212   2.468   1.425  0.1360  0.0244  0.0092
 1188SOL    HW1 3653   3.265   2.435   1.498  0.3389 -2.0446 -1.0201
 1188SOL    HW2 3654   3.274   2.522   1.375  0.5492 -0.2232  0.2397
 1189SOL     OW 3655   3.527   1.098   3.579 -0.1520 -0.7902  0.5940
 1189SOL    HW1 3656   3.598   1.052   3.623 -0.3655  0.2226  2.0475
 1189SOL    HW2 3657   3.548   1.090   3.486  1.0836 -1.7374  0.9249
 1190SOL     OW 3658   0.963   1.598   1.563 -1.1055  0.7004 -0.6237
 1190SOL    HW1 3659   0.892   1.633   1.509 -0.0069  2.9875 -0.7092
 1190SOL    HW2 3660   0.929   1.516   1.597 -2.8886  0.5617 -2.5491
 1191SOL     OW 3661   1.188   2.905   3.169  0.2240 -0.4235  0.0147
 1191SOL    HW1 3662   1.182   2.874   3.260 -0.8691  0.1121  0.1488
 1191SOL    HW2 3663   1.267   2.864   3.135  0.0638 -1.5116  0.8800
 1192SOL     OW 3664   2.174   3.350   2.345 -0.5343  0.1020 -0.3645
 1192SOL    HW1 3665   2.148   3.427   2.396  0.1037  0.1157 -0.0480
 1192SOL    HW2 3666   2.261   3.372   2.313 -1.3430  0.5397 -2.3807
 1193SOL     OW 3667   2.107   3.521   1.429 -0.2109 -0.4452  0.0644
 1193SOL    HW1 3668   2.024   3.539   1.473 -0.4965  0.3111 -0.7596
 1193SOL    HW2 3669   2.134   3.605   1.393  1.4197 -0.4652  1.1247
 1194SOL     OW 3670   3.040   2.707   0.896 -0.1650 -0.7977  0.0406
 1194SOL    HW1 3671   3.041   2.738   0.806 -0.2993  1.7741  0.8333
 1194SOL    HW2 3672   2.949   2.720   0.924  0.3524  0.7300  1.1912
 1195SOL     OW 3673   2.557   0.088   2.939 -0.6052 -0.1484  0.0661
 1195SOL    HW1 3674   2.514   0.037   2.871 -1.1093  1.2076 -0.6555
 1195SOL    HW2 3675   2.644   0.108   2.904 -1.3837  1.8200 -0.8724
 1196SOL     OW 3676   3.654   2.866   1.468 -0.4681 -0.2516 -0.7894
 1196SOL    HW1 3677   3.659   2.934   1.536 -0.3388 -0.0571 -0.9888
 1196SOL    HW2 3678   3.648   2.916   1.386 -1.6561 -0.4850 -0.8553
 1197SOL     OW 3679   1.600   2.669   1.990  0.1207  0.0231 -0.0026
 1197SOL    HW1 3680   1.682   2.652   2.038 -0.6905  0.0690  1.4808
 1197SOL    HW2 3681   1.543   2.596   2.016 -0.2098 -0.1859 -1.2825
 1198SOL     OW 3682   0.502   3.136   3.455  0.0930  0.1398 -0.6091
 1198SOL    HW1 3683   0.576   3.134   3.516 -0.9782 -1.2408  0.7458
 1198SOL    HW2 3684   0.430   3.174   3.506 -0.1008  1.7225 -1.9837
 1199SOL     OW 3685   3.644   3.192   0.001  0.7296 -0.6357  0.1706
 1199SOL    HW1 3686   3.588   3.242   0.061 -0.3579 -3.3041  1.5106
 1199SOL    HW2 3687   3.589   3.177  -0.076  1.3910  0.9154 -0.6694
 1200SOL     OW 3688   0.970   2.137   1.493 -1.1470  0.0526  0.3927
 1200SOL    HW1 3689   1.019   2.069   1.540  0.8474  0.3321 -1.1308
 1200SOL    HW2 3690   1.005   2.219   1.527 -1.3496  0.2776  0.0609
 1201SOL     OW 3691   3.118   2.067   1.044 -0.3605 -0.1953  0.4099
 1201SOL    HW1 3692   3.039   2.033   1.085 -0.1002 -1.8920 -0.4041
 1201SOL    HW2 3693   3.173   1.990   1.030  1.0102  0.8094  0.0310
 1202SOL     OW 3694   3.192   0.746   3.637  0.2440 -0.1839  0.0436
 1202SOL    HW1 3695   3.123   0.690   3.673  0.4688  0.3512  1.3782
 1202SOL    HW2 3696   3.145   0.815   3.590 -0.1003 -0.3711  0.1120
 1203SOL     OW 3697   2.523   3.147   2.850 -0.0137  0.5637  0.1626
 1203SOL    HW1 3698   2.588   3.196   2.901  2.7740 -0.5934 -1.9941
 1203SOL    HW2 3699   2.528   3.058   2.884  0.1541  0.2977 -0.5417
 1204SOL     OW 3700   2.499   0.825   0.400  0.4056 -0.5736 -0.6176
 1204SOL    HW1 3701   2.569   0.790   0.455 -0.1612 -1.3802 -0.3837
 1204SOL    HW2 3702   2.419   0.797   0.443 -0.0627  0.2922 -0.9115
 1205SOL     OW 3703   0.430   0.849   0.087  0.0565 -0.2110  0.4385
 1205SOL    HW1 3704   0.497   0.915   0.072  0.0204 -0.4976 -1.0948
 1205SOL    HW2 3705   0.469   0.789   0.151  1.4615 -0.6460 -0.7918
 1206SOL     OW 3706   0.467   2.490   1.760 -0.0618 -0.0125 -0.1432
 1206SOL    HW1 3707   0.540   2.520   1.706  0.7765  1.6043  1.7747
 1206SOL    HW2 3708   0.503   2.418   1.812  0.2139  0.8069  0.8265
 1207SOL     OW 3709   0.523   0.008   3.854  0.1109  0.1409  0.7002
 1207SOL    HW1 3710   0.452  -0.025   3.799 -1.2565  1.4125  1.6117
 1207SOL    HW2 3711   0.584  -0.065   3.863  0.0967 -0.2973 -1.9773
 1208SOL     OW 3712   3.196   0.995   2.070  0.2761  0.2173 -0.0188
 1208SOL    HW1 3713   3.102   1.001   2.083  0.4220  0.3639  1.0039
 1208SOL    HW2 3714   3.230   1.079   2.100  0.6117  0.7293 -1.6919
 1209SOL     OW 3715   2.435   3.367   2.296  0.4760  0.2040  0.0722
 1209SOL    HW1 3716   2.484   3.296   2.254  0.9814 -0.8302  2.2525
 1209SOL    HW2 3717   2.487   3.389   2.374 -1.3879  0.6315  1.2529
 1210SOL     OW 3718   3.320   2.735   3.064 -0.3085  0.0983 -0.2572
 1210SOL    HW1 3719   3.252   2.686   3.017  0.6468  0.2333 -1.8827
 1210SOL    HW2 3720   3.365   2.668   3.117 -1.6839  0.0179  0.8535
 1211SOL     OW 3721   2.053   2.394   1.523  0.1610  0.2238 -0.0915
 1211SOL    HW1 3722   2.001   2.433   1.453 -1.1309 -0.5048  0.4354
 1211SOL    HW2 3723   2.142   2.426   1.507 -0.2908  0.8774 -1.4664
 1212SOL     OW 3724   0.759   3.188   1.260 -0.1045  0.1917 -0.1887
 1212SOL    HW1 3725   0.813   3.130   1.313 -0.9935  0.4604  1.0515
 1212SOL    HW2 3726   0.680   3.203   1.312 -0.3389  1.7115 -0.9050
 1213SOL     OW 3727   2.275   0.703   0.519  0.2808  0.0740  0.3147
 1213SOL    HW1 3728   2.255   0.623   0.567 -1.2627  0.1131 -0.2333
 1213SOL    HW2 3729   2.194   0.726   0.474  0.5468  2.1863  0.7853
 1214SOL     OW 3730   0.285   1.860   1.708  0.0466  0.0086 -0.2942
 1214SOL    HW1 3731   0.203   1.836   1.750  1.0582  2.3726  3.5511
 1214SOL    HW2 3732   0.348   1.795   1.737  0.2757  0.3314 -0.0539
 1215SOL     OW 3733   3.732   2.914   0.150  0.3294 -0.1415  0.2284
 1215SOL    HW1 3734   3.687   2.884   0.071  0.6022 -1.5377  0.5656
 1215SOL    HW2 3735   3.821   2.932   0.122  0.0825  0.6854 -0.0431
 1216SOL     OW 3736   0.701   0.311   0.567 -0.9076  0.1535 -0.3166
 1216SOL    HW1 3737   0.741   0.224   0.567 -1.9070 -0.3310  0.2759
 1216SOL    HW2 3738   0.773   0.371   0.585 -0.7230 -0.8530  2.7747
 1217SOL     OW 3739   1.168   3.621   1.450  0.2231 -0.3866 -0.4301
 1217SOL    HW1 3740   1.124   3.684   1.507  0.7070 -0.3864 -0.0442
 1217SOL    HW2 3741   1.098   3.584   1.396 -0.4725 -1.3167  1.0418
 1218SOL     OW 3742   2.266   0.135   1.248 -0.0048  0.1979 -0.0025
 1218SOL    HW1 3743   2.313   0.170   1.324  1.3135  1.9083 -1.5358
 1218SOL    HW2 3744   2.180   0.177   1.252 -0.0998 -0.0494  0.7535
 1219SOL     OW 3745   0.392   0.496   0.500  0.1304  0.0472 -0.5524
 1219SOL    HW1 3746   0.349   0.466   0.580  1.2229  0.1656  0.1091
 1219SOL    HW2 3747   0.369   0.431   0.434  1.1706 -1.4301  0.4616
 1220SOL     OW 3748   0.352   2.877   0.629  0.0098  0.8889  0.0388
 1220SOL    HW1 3749   0.394   2.807   0.679  0.2432  1.5030  0.7300
 1220SOL    HW2 3750   0.322   2.939   0.696 -0.8104  1.1136 -0.5198
 1221SOL     OW 3751   3.087   1.714   2.491  0.0344  0.7403  0.3355
 1221SOL    HW1 3752   3.053   1.625   2.503  2.1569 -0.0892  0.5784
 1221SOL    HW2 3753   3.128   1.712   2.404  0.9294  1.1782  0.7362
 1222SOL     OW 3754   2.756   3.676   3.557 -0.7450 -0.3010  0.1760
 1222SOL    HW1 3755   2.818   3.621   3.605  0.1324  0.8682  0.4305
 1222SOL    HW2 3756   2.807   3.711   3.484 -0.9073  1.1315  0.7134
 1223SOL     OW 3757   0.575   3.605   1.055  0.1023  0.7862  0.3835
 1223SOL    HW1 3758   0.639   3.666   1.090 -1.4073  2.6312  0.0624
 1223SOL    HW2 3759   0.623   3.523   1.046  1.9348  1.6400  1.7474
 1224SOL     OW 3760   3.697   2.082   1.224  0.2162 -0.1195 -0.1988
 1224SOL    HW1 3761   3.682   2.063   1.132 -2.0288 -1.6097  0.3981
 1224SOL    HW2 3762   3.772   2.027   1.248  0.0580 -0.6306 -0.8636
 1225SOL     OW 3763   2.929   0.134   3.859  0.3955 -0.3621  0.1597
 1225SOL    HW1 3764   2.888   0.150   3.944  0.6605  0.1147  0.2016
 1225SOL    HW2 3765   3.013   0.180   3.863 -0.1687  0.8232 -0.8288
 1226SOL     OW 3766   3.050   3.296   0.986  0.1210  0.2734 -0.1022
 1226SOL    HW1 3767   3.027   3.389   0.982 -1.1048 -0.0304 -0.8280
 1226SOL    HW2 3768   2.966   3.251   0.976  0.6626 -0.9153  0.5748
 1227SOL     OW 3769   0.786   3.707   1.231 -0.0575  0.3576  0.3234
 1227SOL    HW1 3770   0.787   3.636   1.295 -2.1834  0.3656  0.4386
 1227SOL    HW2 3771   0.757   3.784   1.280 -1.2825  0.4628 -0.5220
 1228SOL     OW 3772   3.404   3.644   2.874 -0.0537 -0.2823 -0.5299
 1228SOL    HW1 3773   3.489   3.615   2.840 -0.8027 -1.1927 -1.6653
 1228SOL    HW2 3774   3.422   3.730   2.912  1.4188 -0.5543 -0.5496
 1229SOL     OW 3775   2.968   1.520   1.111 -0.2386  0.0958  0.0642
 1229SOL    HW1 3776   2.945   1.441   1.162  1.3541 -0.4201  0.0276
 1229SOL    HW2 3777   3.003   1.580   1.176  1.4029 -0.4026 -0.3196
 1230SOL     OW 3778   3.451   1.452   0.612 -0.2603  0.5463 -0.3679
 1230SOL    HW1 3779   3.357   1.439   0.620 -0.2882  1.1718  0.4742
 1230SOL    HW2 3780   3.461   1.510   0.536 -0.5702  0.7610 -0.2437
 1231SOL     OW 3781   3.274   3.017   3.404 -0.2906  0.2021 -0.1497
 1231SOL    HW1 3782   3.208   2.958   3.439  2.1087 -1.6968  1.4967
 1231SOL    HW2 3783   3.260   3.099   3.451 -1.1400 -0.3347  0.5589
 1232SOL     OW 3784   1.893   3.632   3.816  0.3473  0.4042  0.6448
 1232SOL    HW1 3785   1.880   3.717   3.774 -0.8395  0.7204  1.5665
 1232SOL    HW2 3786   1.979   3.603   3.788 -0.0496  0.9813 -1.2921
 1233SOL     OW 3787   1.831   2.949   0.549 -0.2090  0.6927  0.0663
 1233SOL    HW1 3788   1.762   3.001   0.507 -2.2702 -1.9270 -0.0386
 1233SOL    HW2 3789   1.896   2.935   0.479 -0.0025  2.3163 -0.1246
 1234SOL     OW 3790   3.463   0.085   2.318  0.0034 -0.1528 -0.3385
 1234SOL    HW1 3791   3.432   0.090   2.227  0.6874  0.7230 -0.5365
 1234SOL    HW2 3792   3.442  -0.005   2.345 -1.1343 -0.1114 -1.0105
 1235SOL     OW 3793   3.807   0.308   1.732 -0.0654  0.4609 -0.1990
 1235SOL    HW1 3794   3.746   0.362   1.783  0.1789  0.5475  0.0008
 1235SOL    HW2 3795   3.783   0.218   1.754  0.7776  0.4973  0.9586
 1236SOL     OW 3796   2.145   1.804   1.265  0.6767  0.3194  0.5158
 1236SOL    HW1 3797   2.208   1.740   1.296  0.9161  0.9544  1.3905
 1236SOL    HW2 3798   2.198   1.870   1.220  0.6333  0.8022  1.1625
 1237SOL     OW 3799   0.549   0.244   0.948 -0.0796 -0.4270  0.3846
 1237SOL    HW1 3800   0.636   0.279   0.968  0.3050 -0.6204 -0.8816
 1237SOL    HW2 3801   0.510   0.225   1.034  1.9177 -2.3185  0.9580
 1238SOL     OW 3802   0.321   0.196   0.748  0.4240 -0.5723  0.6446
 1238SOL    HW1 3803   0.408   0.174   0.781  0.1254 -2.3500  0.3369
 1238SOL    HW2 3804   0.329   0.189   0.653  0.4123  1.1816  0.4782
 1239SOL     OW 3805   0.383   3.569   2.320  0.2530 -0.0129  0.2417
 1239SOL    HW1 3806   0.321   3.511   2.365  2.2505 -3.2553 -0.8750
 1239SOL    HW2 3807   0.341   3.587   2.236 -0.8139  1.1041  0.9668
 1240SOL     OW 3808   1.622   2.679   1.363  0.4728  0.0325  0.4213
 1240SOL    HW1 3809   1.655   2.728   1.288  0.0352  0.9906  0.8295
 1240SOL    HW2 3810   1.629   2.741   1.436 -0.0918 -0.5222  0.9525
 1241SOL     OW 3811   3.337   3.373   3.810  0.1035  0.2027 -0.5001
 1241SOL    HW1 3812   3.407   3.373   3.875  0.6150  0.7358 -1.0352
 1241SOL    HW2 3813   3.274   3.437   3.842  0.3178  0.4091 -0.4906
 1242SOL     OW 3814   3.867   3.699   0.586 -0.0578  0.6756 -0.5780
 1242SOL    HW1 3815   3.938   3.754   0.618  0.2337  0.6273 -1.1337
 1242SOL    HW2 3816   3.859   3.721   0.493 -0.8263  0.7415 -0.4983
 1243SOL     OW 3817   0.226   2.675   1.019  0.1811  0.0959 -0.5583
 1243SOL    HW1 3818   0.193   2.615   1.086  0.0560 -1.9613 -2.3476
 1243SOL    HW2 3819   0.152   2.688   0.959  1.0330 -0.3052 -1.7493
 1244SOL     OW 3820   2.483   1.939   3.089 -0.0479  0.0648  0.3140
 1244SOL    HW1 3821   2.542   1.997   3.041  0.5742  0.1194  1.1200
 1244SOL    HW2 3822   2.399   1.985   3.089  0.3354  0.7721  0.5807
 1245SOL     OW 3823   2.275   3.489   0.568  0.3714 -0.1750 -0.2413
 1245SOL    HW1 3824   2.230   3.453   0.491 -0.7656  0.5271  0.0563
 1245SOL    HW2 3825   2.258   3.584   0.563  2.5082  0.2295 -0.5213
 1246SOL     OW 3826   3.807   2.920   1.898  0.5630 -0.1625 -0.1929
 1246SOL    HW1 3827   3.894   2.921   1.859  0.5588 -1.1334 -0.2708
 1246SOL    HW2 3828   3.799   2.832   1.935  0.2441  0.4570  1.2606
 1247SOL     OW 3829   0.463   2.752   3.664 -0.5003 -0.0930 -0.5288
 1247SOL    HW1 3830   0.384   2.750   3.718 -0.8712 -1.5852 -1.0800
 1247SOL    HW2 3831   0.508   2.670   3.686  1.1577  0.9644  0.1441
 1248SOL     OW 3832   3.314   0.807   1.173 -0.2113 -0.0056  0.0472
 1248SOL    HW1 3833   3.353   0.744   1.112 -1.2937  0.1653 -0.8569
 1248SOL    HW2 3834   3.314   0.890   1.125 -1.6167  0.0106  0.0251
 1249SOL     OW 3835   3.413   0.860   1.940  0.1384 -0.0450 -0.1680
 1249SOL    HW1 3836   3.342   0.922   1.953 -0.0675 -0.3572  0.2454
 1249SOL    HW2 3837   3.380   0.798   1.875  0.3054  0.2213 -0.5056
 1250SOL     OW 3838   2.134   3.097   3.038  0.6784 -0.1608 -0.3747
 1250SOL    HW1 3839   2.127   3.115   2.944 -2.1319  1.2284 -0.0042
 1250SOL    HW2 3840   2.170   3.177   3.075  1.4204 -0.5706 -0.1754
 1251SOL     OW 3841   3.056   1.135   3.218 -0.2644  0.1987  0.2780
 1251SOL    HW1 3842   3.011   1.082   3.153 -1.9493 -0.2779  1.7722
 1251SOL    HW2 3843   2.986   1.177   3.267  0.9996  1.9351  0.6872
 1252SOL     OW 3844   3.665   1.648   1.093 -0.3851  0.0636  0.6710
 1252SOL    HW1 3845   3.619   1.721   1.052  0.1637  0.6685  1.1021
 1252SOL    HW2 3846   3.743   1.636   1.039 -0.4589 -0.1923  0.6193
 1253SOL     OW 3847   1.252   3.008   3.593 -0.1493  0.1004  0.5798
 1253SOL    HW1 3848   1.251   3.014   3.688  0.5648 -1.2613  0.7009
 1253SOL    HW2 3849   1.268   3.098   3.563  1.5779  0.2627  1.8134
 1254SOL     OW 3850   1.139   0.066   1.598 -0.4113  0.0008 -0.2516
 1254SOL    HW1 3851   1.053   0.031   1.574 -0.7250  0.2901  0.4364
 1254SOL    HW2 3852   1.120   0.145   1.647  0.2715  0.4563 -0.6992
 1255SOL     OW 3853   0.470   0.125   2.208  0.0612  0.0968 -0.4773
 1255SOL    HW1 3854   0.550   0.155   2.251 -0.1346  0.0858 -0.0984
 1255SOL    HW2 3855   0.458   0.186   2.135 -0.1539  0.7553  0.0925
 1256SOL     OW 3856   0.085   2.471   1.894  0.3374  0.0921  0.3614
 1256SOL    HW1 3857   0.131   2.536   1.948  1.1726 -0.0899 -0.1039
 1256SOL    HW2 3858  -0.004   2.506   1.886  0.6394  0.9432  0.5211
 1257SOL     OW 3859   0.835   3.513   1.464 -0.1936  0.1272  0.1300
 1257SOL    HW1 3860   0.756   3.505   1.518 -0.6129  1.0765 -0.3266
 1257SOL    HW2 3861   0.864   3.423   1.451  0.3983 -0.1339  2.6265
 1258SOL     OW 3862   2.316   0.668   2.099 -0.4723  0.3571  0.6932
 1258SOL    HW1 3863   2.299   0.588   2.149 -1.7344  0.2868  0.1934
 1258SOL    HW2 3864   2.254   0.732   2.134 -1.1920  0.3794 -0.5643
 1259SOL     OW 3865   0.322   0.902   0.963  0.2535  0.1643 -0.4530
 1259SOL    HW1 3866   0.349   0.862   0.880  1.5585  1.1289 -0.5207
 1259SOL    HW2 3867   0.240   0.946   0.943 -0.2166 -0.8621 -0.8453
 1260SOL     OW 3868   1.713   2.240   3.804  0.2651 -0.6231  0.2540
 1260SOL    HW1 3869   1.638   2.184   3.822 -1.9633  2.1479  0.3547
 1260SOL    HW2 3870   1.706   2.261   3.711  1.1034 -0.5695  0.1930
 1261SOL     OW 3871   0.921   2.741   1.652 -0.7059 -0.2623 -0.4128
 1261SOL    HW1 3872   1.011   2.729   1.681 -0.9425 -1.2714 -0.0631
 1261SOL    HW2 3873   0.928   2.757   1.558 -0.2016 -1.0681 -0.5240
 1262SOL     OW 3874   0.694   3.472   0.392 -0.2698 -0.1063 -0.1658
 1262SOL    HW1 3875   0.719   3.563   0.411 -0.2000 -0.0992 -0.2891
 1262SOL    HW2 3876   0.736   3.420   0.460  2.0984 -0.3662 -1.6937
 1263SOL     OW 3877   2.270   1.193   3.256 -0.1436 -0.0438 -0.7135
 1263SOL    HW1 3878   2.308   1.164   3.173  1.5289  0.1719 -0.0731
 1263SOL    HW2 3879   2.232   1.279   3.237  0.5795  0.1807 -1.1837
 1264SOL     OW 3880   2.303   2.867   2.520 -0.2958  0.4715 -0.1917
 1264SOL    HW1 3881   2.370   2.851   2.454 -0.3378  0.1717 -0.1638
 1264SOL    HW2 3882   2.303   2.962   2.531  1.7527  0.3543  1.4780
 1265SOL     OW 3883   0.320   3.339   0.126  0.4482 -0.1150  0.2388
 1265SOL    HW1 3884   0.416   3.341   0.134  0.3919 -2.7212  3.6676
 1265SOL    HW2 3885   0.293   3.430   0.138  2.4276  0.4399  0.8725
 1266SOL     OW 3886   2.477   0.443   3.086  0.3617  0.0624  0.3910
 1266SOL    HW1 3887   2.422   0.387   3.141 -0.5401  2.0166  1.5967
 1266SOL    HW2 3888   2.567   0.417   3.107 -0.0084 -2.4023 -0.7665
 1267SOL     OW 3889   1.366   0.341   1.218 -0.1769 -0.1650  0.0736
 1267SOL    HW1 3890   1.452   0.347   1.175  0.4244 -2.3801  0.7996
 1267SOL    HW2 3891   1.325   0.426   1.202  1.6196  0.5001 -1.4122
 1268SOL     OW 3892   1.071   1.387   2.784  0.0014 -0.0780 -0.3840
 1268SOL    HW1 3893   1.081   1.448   2.858  1.0927 -1.1786  0.4282
 1268SOL    HW2 3894   1.110   1.433   2.710  1.3612  0.0059  0.3504
 1269SOL     OW 3895   0.912   2.722   0.763  0.2143  0.6525  0.4987
 1269SOL    HW1 3896   0.949   2.681   0.842  0.7259  1.6880  0.8199
 1269SOL    HW2 3897   0.858   2.793   0.797 -0.2914  0.5401 -0.0657
 1270SOL     OW 3898   0.997   0.968   1.681  0.0040 -0.0599 -0.9294
 1270SOL    HW1 3899   1.087   0.938   1.670 -0.2068 -0.8641 -0.5062
 1270SOL    HW2 3900   0.949   0.927   1.609  0.0472  0.7240 -1.4213
 1271SOL     OW 3901   3.113   2.057   0.764 -0.3632  0.6136 -0.3077
 1271SOL    HW1 3902   3.073   2.063   0.851 -1.2840  0.3793 -0.7003
 1271SOL    HW2 3903   3.132   2.147   0.740  0.5826  0.6213  0.4439
 1272SOL     OW 3904   3.787   0.431   3.229 -0.2618  0.0708  0.1875
 1272SOL    HW1 3905   3.821   0.520   3.219  0.0686  0.1219  1.4878
 1272SOL    HW2 3906   3.755   0.428   3.320 -0.6227 -1.0156  0.0391
 1273SOL     OW 3907   1.712   2.644   3.583  0.3890 -0.1373 -0.0671
 1273SOL    HW1 3908   1.753   2.683   3.506  0.1820  0.0789 -0.0687
 1273SOL    HW2 3909   1.724   2.709   3.652  0.0229 -0.0600 -0.0750
 1274SOL     OW 3910   0.803   2.901   2.396 -0.6218 -0.1606 -0.6397
 1274SOL    HW1 3911   0.724   2.858   2.362 -1.4793 -0.3688  1.4569
 1274SOL    HW2 3912   0.771   2.954   2.469  1.2762 -0.7504  0.6708
 1275SOL     OW 3913   1.888   2.686   1.655  0.0303  0.1323 -0.0288
 1275SOL    HW1 3914   1.906   2.698   1.748 -2.0905  0.9845  0.3299
 1275SOL    HW2 3915   1.933   2.604   1.632  1.3725  0.4011  1.4833
 1276SOL     OW 3916   0.974   2.505   1.366 -0.1739  0.2447  0.0273
 1276SOL    HW1 3917   1.035   2.463   1.306 -0.6325 -1.1608  0.4934
 1276SOL    HW2 3918   1.012   2.491   1.453 -0.0928  1.2496  0.1656
 1277SOL     OW 3919   0.862   3.407   0.866  0.7312 -0.1945 -0.4780
 1277SOL    HW1 3920   0.895   3.386   0.779  0.3376 -2.0103 -0.2174
 1277SOL    HW2 3921   0.941   3.425   0.917  1.1772 -1.9513 -0.5102
 1278SOL     OW 3922   2.272   3.068   3.619 -0.3895 -0.4180 -0.1157
 1278SOL    HW1 3923   2.235   3.040   3.703  0.0370  0.0076  0.2174
 1278SOL    HW2 3924   2.249   3.161   3.613 -0.5589 -0.4858 -0.5508
 1279SOL     OW 3925   1.752   2.795   2.628 -0.5142  0.1499 -0.3848
 1279SOL    HW1 3926   1.787   2.881   2.651  0.7318  0.4645 -3.1176
 1279SOL    HW2 3927   1.659   2.800   2.652 -1.1987  3.3557 -2.9370
 1280SOL     OW 3928   2.821   0.942   0.850  0.3730  0.1787  0.2684
 1280SOL    HW1 3929   2.874   0.912   0.776 -0.4204  0.4583 -0.4411
 1280SOL    HW2 3930   2.884   0.962   0.919  1.1122 -0.3954 -0.2210
 1281SOL     OW 3931   2.700   0.737   1.332  0.1853 -0.1554 -0.1499
 1281SOL    HW1 3932   2.709   0.690   1.415  0.9628  0.7236  0.2869
 1281SOL    HW2 3933   2.653   0.817   1.355  0.5745  0.1827 -0.5091
 1282SOL     OW 3934   2.747   0.352   0.901 -0.1060  0.0456  0.0848
 1282SOL    HW1 3935   2.666   0.336   0.948 -0.4167  1.2065 -0.0162
 1282SOL    HW2 3936   2.726   0.424   0.842  0.4320 -0.9804 -1.4187
 1283SOL     OW 3937   1.031   2.650   2.768  0.3719 -0.2949 -0.5690
 1283SOL    HW1 3938   0.968   2.595   2.720 -0.9571  0.5495  0.1434
 1283SOL    HW2 3939   1.005   2.641   2.859  0.3192  1.2610 -0.4156
 1284SOL     OW 3940   3.885   2.516   3.766 -0.2330 -0.1732 -0.0832
 1284SOL    HW1 3941   3.801   2.552   3.739  0.6612  2.5614  0.5057
 1284SOL    HW2 3942   3.931   2.497   3.684 -1.5260 -2.1597 -0.4158
 1285SOL     OW 3943   0.906   3.590   2.795  0.4984 -0.0502 -0.0944
 1285SOL    HW1 3944   0.866   3.556   2.875 -0.5372  0.5661 -0.3310
 1285SOL    HW2 3945   0.910   3.684   2.808  1.6998 -0.0726 -0.1727
 1286SOL     OW 3946   1.111   1.866   2.622 -0.2809  0.0025  0.9380
 1286SOL    HW1 3947   1.171   1.858   2.696  0.2255 -1.0538  0.4419
 1286SOL    HW2 3948   1.106   1.960   2.605  1.4989  0.1101  0.8005
 1287SOL     OW 3949   3.255   0.412   3.697  0.8430 -0.0932 -0.7384
 1287SOL    HW1 3950   3.206   0.493   3.683 -0.4245 -0.6523  0.3034
 1287SOL    HW2 3951   3.206   0.365   3.765  2.5536 -0.9074 -0.0120
 1288SOL     OW 3952   2.592   3.555   1.468 -0.0798  0.3899  0.2177
 1288SOL    HW1 3953   2.516   3.508   1.434  0.4778  0.8250 -1.7265
 1288SOL    HW2 3954   2.561   3.645   1.481 -0.7456 -0.0998  2.5725
 1289SOL     OW 3955   2.840   2.320   1.486 -0.0704  0.0170 -0.1932
 1289SOL    HW1 3956   2.888   2.375   1.424  1.4157 -1.4425 -0.3971
 1289SOL    HW2 3957   2.813   2.381   1.555 -0.3127  1.3641 -1.4280
 1290SOL     OW 3958   2.195   1.516   0.312 -0.5342 -0.0326  0.3980
 1290SOL    HW1 3959   2.140   1.534   0.235 -0.5741  0.6401  0.5716
 1290SOL    HW2 3960   2.168   1.430   0.342 -0.8095 -0.1223 -0.1012
 1291SOL     OW 3961   0.989   2.372   3.419 -0.3769 -0.4410  0.4208
 1291SOL    HW1 3962   0.996   2.375   3.514  0.0799 -0.3779  0.3857
 1291SOL    HW2 3963   1.078   2.385   3.387 -0.4498 -0.9460 -0.0082
 1292SOL     OW 3964   2.185   0.971   0.387  0.0625 -0.0790  0.3008
 1292SOL    HW1 3965   2.132   0.892   0.398  0.4597 -0.2435  1.0941
 1292SOL    HW2 3966   2.206   0.998   0.476 -0.0652  0.9292  0.0372
 1293SOL     OW 3967   0.452   0.987   2.082 -0.5647  0.5982 -0.2240
 1293SOL    HW1 3968   0.454   1.079   2.053 -2.3517  0.3364 -1.3482
 1293SOL    HW2 3969   0.362   0.959   2.066  0.3734 -1.9048 -1.6452
 1294SOL     OW 3970   2.658   1.848   3.625  0.3233  0.2559 -0.0493
 1294SOL    HW1 3971   2.714   1.789   3.574 -0.1072  0.5537 -0.8805
 1294SOL    HW2 3972   2.569   1.817   3.610  0.0641  1.2743 -0.7273
 1295SOL     OW 3973   3.543   1.260   2.693  0.1975 -0.0214 -0.5543
 1295SOL    HW1 3974   3.608   1.241   2.625  1.5245  0.5221  0.5233
 1295SOL    HW2 3975   3.508   1.174   2.716  0.1871 -0.2756 -1.4877
 1296SOL     OW 3976   3.646   0.766   0.992  0.5078 -0.2667 -0.1700
 1296SOL    HW1 3977   3.697   0.762   0.912 -0.5892 -0.9267 -0.8527
 1296SOL    HW2 3978   3.652   0.678   1.029  1.0791  0.0550  0.5330
 1297SOL     OW 3979   2.146   3.629   3.694  0.8872  0.2619 -0.1315
 1297SOL    HW1 3980   2.185   3.629   3.607  0.1711 -1.0276 -0.4798
 1297SOL    HW2 3981   2.157   3.718   3.726 -0.7210  1.3708 -2.4084
 1298SOL     OW 3982   2.562   2.960   0.381  0.3304  0.3095 -0.0596
 1298SOL    HW1 3983   2.627   3.023   0.350  0.1429  1.1869  1.2664
 1298SOL    HW2 3984   2.602   2.875   0.365  2.0422  0.8344  1.1505
 1299SOL     OW 3985   2.393   2.762   2.167 -0.4135 -0.3194  0.0722
 1299SOL    HW1 3986   2.312   2.736   2.210 -1.2178  0.4386 -0.9557
 1299SOL    HW2 3987   2.401   2.704   2.091  0.1895 -0.6074  0.3433
 1300SOL     OW 3988   1.322   3.009   2.844  0.6327 -0.3483  0.0053
 1300SOL    HW1 3989   1.315   2.972   2.932  0.1145 -1.3324 -0.4396
 1300SOL    HW2 3990   1.402   3.061   2.846  1.4674 -1.6058  0.6129
 1301SOL     OW 3991   3.623   0.490   2.681 -0.7238 -0.1858 -0.2079
 1301SOL    HW1 3992   3.681   0.446   2.744 -2.1973  0.5254  1.7742
 1301SOL    HW2 3993   3.623   0.433   2.605  1.4933 -0.8835  0.2433
 1302SOL     OW 3994   2.852   0.371   3.192  0.3882 -0.2741 -0.1732
 1302SOL    HW1 3995   2.915   0.328   3.250  1.8027  1.4437 -0.3352
 1302SOL    HW2 3996   2.772   0.320   3.201  1.6271 -2.1871  0.5065
 1303SOL     OW 3997   2.534   0.690   1.721  0.5742  0.0499 -0.5265
 1303SOL    HW1 3998   2.461   0.635   1.750  0.6602  0.6851  0.9650
 1303SOL    HW2 3999   2.498   0.779   1.720  1.2631  0.3398  0.0104
 1304SOL     OW 4000   3.633   3.631   2.299 -0.3769  0.4357 -0.5323
 1304SOL    HW1 4001   3.541   3.660   2.296 -0.1652  1.2112  0.1437
 1304SOL    HW2 4002   3.628   3.538   2.320 -0.9850  0.7243  0.6687
 1305SOL     OW 4003   1.849   3.407   3.038 -0.0909 -0.2277  0.3782
 1305SOL    HW1 4004   1.820   3.472   3.101 -0.8216  0.5248 -0.6929
 1305SOL    HW2 4005   1.773   3.393   2.981  0.2176 -1.6396  0.2677
 1306SOL     OW 4006   0.638   0.058   1.285  0.2619 -0.1758  0.2210
 1306SOL    HW1 4007   0.714   0.083   1.232  0.2497 -2.7268 -1.1293
 1306SOL    HW2 4008   0.570   0.120   1.260  0.7190 -0.3796 -1.6142
 1307SOL     OW 4009   2.580   3.718   2.458  0.3533  0.2040 -0.0721
 1307SOL    HW1 4010   2.490   3.711   2.427 -0.0570  0.1787  1.0800
 1307SOL    HW2 4011   2.633   3.723   2.379 -0.6889  0.5645 -0.7513
 1308SOL     OW 4012   1.596   0.276   0.662 -0.3598  0.6952 -0.8592
 1308SOL    HW1 4013   1.540   0.217   0.712 -0.4878  1.9311  0.5333
 1308SOL    HW2 4014   1.653   0.317   0.727  0.7164  1.0488 -1.9710
 1309SOL     OW 4015   2.443   0.219   3.437 -0.3495 -0.5580 -0.2661
 1309SOL    HW1 4016   2.440   0.261   3.523  1.0938  0.1997 -0.5568
 1309SOL    HW2 4017   2.365   0.163   3.435 -1.1571  0.4655  0.9762
 1310SOL     OW 4018   2.237   0.199   1.933  0.1028  0.2127  0.4483
 1310SOL    HW1 4019   2.198   0.277   1.972 -2.6858  0.3139 -2.1775
 1310SOL    HW2 4020   2.168   0.133   1.938  0.2611 -0.3110 -2.3707
 1311SOL     OW 4021   1.258   3.010   1.934  0.2595  0.3749  0.6654
 1311SOL    HW1 4022   1.266   2.931   1.987  0.6640 -0.1136 -0.1066
 1311SOL    HW2 4023   1.269   3.082   1.997  0.7648 -0.1856  1.2330
 1312SOL     OW 4024   3.599   2.568   0.900  0.2506  0.0641 -0.0128
 1312SOL    HW1 4025   3.572   2.481   0.930  0.0422  0.3142  0.5374
 1312SOL    HW2 4026   3.520   2.604   0.860 -0.5803  1.1817  2.4691
 1313SOL     OW 4027   3.214   3.183   0.699 -0.3717 -0.3569 -0.6396
 1313SOL    HW1 4028   3.122   3.169   0.676 -0.3603  0.7844 -1.4827
 1313SOL    HW2 4029   3.242   3.100   0.737 -2.8060  0.3717  3.3047
 1314SOL     OW 4030   1.497   0.690   0.224  0.4320 -0.2899  0.3796
 1314SOL    HW1 4031   1.540   0.686   0.309  0.7304 -1.5898  0.2005
 1314SOL    HW2 4032   1.408   0.659   0.239  0.4917 -0.5447  0.2207
 1315SOL     OW 4033   1.195   3.776   1.799 -0.0194 -0.0812  0.0863
 1315SOL    HW1 4034   1.143   3.826   1.736  0.7130  0.7090  0.0803
 1315SOL    HW2 4035   1.133   3.754   1.869 -0.1292  1.9304  0.6964
 1316SOL     OW 4036   1.763   3.481   2.445 -0.1229  0.1349 -0.7642
 1316SOL    HW1 4037   1.792   3.547   2.382 -1.0685  0.1682 -1.1800
 1316SOL    HW2 4038   1.685   3.519   2.485 -0.0384 -0.2658 -0.2103
 1317SOL     OW 4039   0.400   2.390   2.454 -0.0127  0.4182 -0.4453
 1317SOL    HW1 4040   0.487   2.352   2.443  0.0608  0.7052 -0.8681
 1317SOL    HW2 4041   0.360   2.338   2.524  1.0910  1.3368  0.9327
 1318SOL     OW 4042   3.765   2.832   0.501 -0.0742  0.6776  0.1144
 1318SOL    HW1 4043   3.691   2.884   0.471  0.8049  0.7377 -2.1585
 1318SOL    HW2 4044   3.842   2.875   0.463  0.9355 -0.5705  0.6580
 1319SOL     OW 4045   0.930   2.135   2.665 -0.1118 -0.2097  0.1435
 1319SOL    HW1 4046   1.016   2.121   2.704  0.0880 -2.5574 -0.9628
 1319SOL    HW2 4047   0.940   2.215   2.612 -0.0509  2.3165  3.6523
 1320SOL     OW 4048   3.549   1.349   3.845 -0.4449 -0.0979  0.0441
 1320SOL    HW1 4049   3.479   1.374   3.785  0.8033  0.7190 -1.1104
 1320SOL    HW2 4050   3.587   1.431   3.873  0.6966 -0.5554 -0.1332
 1321SOL     OW 4051   1.645   1.408   2.757  0.0275 -0.3341 -0.2888
 1321SOL    HW1 4052   1.735   1.375   2.747  0.6299  0.6426  1.5234
 1321SOL    HW2 4053   1.619   1.382   2.845 -0.9537  0.5831 -0.2883
 1322SOL     OW 4054   0.817   1.662   3.468  0.3686  0.0764 -0.6641
 1322SOL    HW1 4055   0.829   1.650   3.563 -0.4558  0.1481 -0.5409
 1322SOL    HW2 4056   0.814   1.573   3.433 -0.2683  0.0223 -0.4885
 1323SOL     OW 4057   0.309   2.835   1.238 -0.2463  0.3914 -0.3281
 1323SOL    HW1 4058   0.287   2.792   1.156  0.5246  0.9319 -0.8285
 1323SOL    HW2 4059   0.395   2.875   1.223  1.4558 -2.1040  1.7161
 1324SOL     OW 4060   2.673   0.149   2.295  0.1981  0.8616 -0.3949
 1324SOL    HW1 4061   2.757   0.103   2.304  0.9978  2.5671  2.3407
 1324SOL    HW2 4062   2.663   0.165   2.201  2.6112  0.0116 -0.8569
 1325SOL     OW 4063   3.527   2.403   2.326  0.1053  0.0610  0.4484
 1325SOL    HW1 4064   3.613   2.368   2.304 -0.5903 -0.3997 -1.6803
 1325SOL    HW2 4065   3.476   2.327   2.355 -1.2318 -0.8744 -3.6493
 1326SOL     OW 4066   1.487   1.092   2.671  0.7326 -0.2736  0.2180
 1326SOL    HW1 4067   1.456   1.178   2.645 -1.7213 -0.2639  2.7601
 1326SOL    HW2 4068   1.582   1.102   2.678  0.7101  1.6501 -1.3096
 1327SOL     OW 4069   3.469   1.209   1.659  0.6315  0.8998 -0.3576
 1327SOL    HW1 4070   3.500   1.239   1.574  0.6692  0.4469 -0.5102
 1327SOL    HW2 4071   3.546   1.167   1.700 -0.1975 -2.1645 -1.6241
 1328SOL     OW 4072   3.840   3.454   2.589 -0.3497 -0.0593 -0.7938
 1328SOL    HW1 4073   3.869   3.517   2.522 -0.1627  0.2489 -0.4239
 1328SOL    HW2 4074   3.775   3.502   2.640 -0.0264 -0.0887 -0.3551
 1329SOL     OW 4075   2.141   3.464   0.340 -0.1197  0.6234  0.3077
 1329SOL    HW1 4076   2.054   3.426   0.326  0.1133  0.4478 -0.8080
 1329SOL    HW2 4077   2.127   3.558   0.330 -0.1533  0.5772 -0.1315
 1330SOL     OW 4078   0.108   3.407   3.484 -0.6537 -0.2310 -0.2330
 1330SOL    HW1 4079   0.027   3.358   3.465 -0.5870  0.0062 -1.2182
 1330SOL    HW2 4080   0.089   3.456   3.564 -0.9371 -1.3739  0.4232
 1331SOL     OW 4081   1.987   0.090   1.910 -0.5222  0.4656 -1.0254
 1331SOL    HW1 4082   1.949   0.053   1.830 -1.0240  0.5950 -0.8525
 1331SOL    HW2 4083   1.928   0.063   1.980 -0.0443  0.2921 -0.6827
 1332SOL     OW 4084   0.768   1.741   1.413 -0.5966 -0.5914 -0.1416
 1332SOL    HW1 4085   0.694   1.797   1.434  0.4529  0.5350  0.7441
 1332SOL    HW2 4086   0.783   1.755   1.320  0.7489  2.1321  0.3601
 1333SOL     OW 4087   0.749   2.048   2.056  0.0967  0.2702 -0.0753
 1333SOL    HW1 4088   0.808   2.033   2.130  1.0681  0.7311 -0.7434
 1333SOL    HW2 4089   0.705   1.964   2.044 -0.0900  0.1936  1.0268
 1334SOL     OW 4090   2.534   3.284   0.177  0.1170  0.3783 -0.2915
 1334SOL    HW1 4091   2.584   3.363   0.200 -0.1514  0.4949 -0.1004
 1334SOL    HW2 4092   2.600   3.223   0.143  0.4634  0.3743  0.3642
 1335SOL     OW 4093   2.368   1.586   2.643 -0.7896  0.1518  0.4144
 1335SOL    HW1 4094   2.334   1.662   2.692 -1.8478 -1.2735  2.0227
 1335SOL    HW2 4095   2.445   1.559   2.692  0.4753  1.0322 -1.0161
 1336SOL     OW 4096   1.295   0.159   2.743  0.3280  0.6177  0.3896
 1336SOL    HW1 4097   1.337   0.233   2.699 -0.2494  1.0884  0.6274
 1336SOL    HW2 4098   1.353   0.085   2.724  0.4369  0.9433 -0.6065
 1337SOL     OW 4099   2.568   1.843   2.428  0.6890 -0.2216  0.1233
 1337SOL    HW1 4100   2.656   1.813   2.405  0.8750  0.2752  0.1723
 1337SOL    HW2 4101   2.549   1.798   2.510 -0.3090 -2.6381 -1.3273
 1338SOL     OW 4102   3.315   0.665   0.719 -0.0549  0.6070  0.2140
 1338SOL    HW1 4103   3.359   0.636   0.639  1.5237  0.0451  1.2264
 1338SOL    HW2 4104   3.334   0.758   0.725 -0.0457  0.6183  0.0198
 1339SOL     OW 4105   3.220   2.386   0.101 -0.3113  0.0455 -0.1365
 1339SOL    HW1 4106   3.279   2.389   0.176 -0.3827  2.3095 -0.1096
 1339SOL    HW2 4107   3.158   2.316   0.122 -0.1310  0.4050  1.7874
 1340SOL     OW 4108   2.098   2.669   3.244 -0.0979  0.0777 -0.3188
 1340SOL    HW1 4109   2.106   2.673   3.340 -2.6197  0.2329 -0.0480
 1340SOL    HW2 4110   2.032   2.734   3.223 -0.7167 -1.0221 -1.9960
 1341SOL     OW 4111   2.857   0.486   2.228 -0.2395 -0.4193  0.0147
 1341SOL    HW1 4112   2.906   0.554   2.183  0.1869 -2.0015 -2.0223
 1341SOL    HW2 4113   2.765   0.511   2.216 -0.0959  0.9094  1.2242
 1342SOL     OW 4114   0.240   3.871   2.136  0.3109 -0.4849  0.0160
 1342SOL    HW1 4115   0.330   3.901   2.148  0.5247 -0.9148 -0.4623
 1342SOL    HW2 4116   0.249   3.778   2.116 -0.3246 -0.9093  1.5045
 1343SOL     OW 4117   0.792   2.653   2.029  0.6162  0.0786 -0.3210
 1343SOL    HW1 4118   0.880   2.634   2.062  1.0395  1.0886 -0.8263
 1343SOL    HW2 4119   0.734   2.604   2.087  1.4575  0.0586  0.5319
 1344SOL     OW 4120   2.353   2.088   2.613  0.1990  0.2549  0.3691
 1344SOL    HW1 4121   2.288   2.113   2.547  0.9804 -2.0575 -1.3789
 1344SOL    HW2 4122   2.337   2.149   2.686  0.5419  4.2817 -2.5942
 1345SOL     OW 4123   1.992   3.023   3.835  0.2617  0.3015 -0.2691
 1345SOL    HW1 4124   2.079   3.033   3.875  0.4391 -0.6149 -0.3901
 1345SOL    HW2 4125   2.001   2.945   3.780  0.1063  1.6429 -2.2944
 1346SOL     OW 4126   0.627   1.739   0.189  0.3293  0.4942 -0.1071
 1346SOL    HW1 4127   0.538   1.760   0.160  1.1184  2.5201 -1.2795
 1346SOL    HW2 4128   0.643   1.651   0.154 -0.4572  0.9857 -1.8525
 1347SOL     OW 4129   0.516   3.230   2.189 -0.3068  0.3376  0.1778
 1347SOL    HW1 4130   0.466   3.266   2.263 -1.7872  3.6546 -2.2168
 1347SOL    HW2 4131   0.453   3.176   2.142  0.2940 -0.7556  0.5780
 1348SOL     OW 4132   1.188   3.415   2.047  0.0480 -0.2409  0.0640
 1348SOL    HW1 4133   1.126   3.372   1.988 -0.6607 -0.2044  0.7703
 1348SOL    HW2 4134   1.273   3.376   2.024 -0.2061 -0.2237 -0.9732
 1349SOL     OW 4135   1.693   2.611   0.475  0.5743 -0.4137 -0.2648
 1349SOL    HW1 4136   1.758   2.591   0.543  1.1819  0.2700 -0.6236
 1349SOL    HW2 4137   1.719   2.556   0.400 -0.1703 -1.2627  0.0765
 1350SOL     OW 4138   3.282   1.239   2.098 -0.1936  0.1778  0.1296
 1350SOL    HW1 4139   3.336   1.286   2.162  1.9907 -0.2595 -1.2846
 1350SOL    HW2 4140   3.297   1.286   2.016 -0.3559 -1.1888 -0.7007
 1351SOL     OW 4141   0.592   2.300   3.294  0.2951  0.3709  0.1581
 1351SOL    HW1 4142   0.541   2.237   3.344 -0.1703  1.9907  1.8591
 1351SOL    HW2 4143   0.680   2.263   3.290 -0.2027 -0.8654  0.1283
 1352SOL     OW 4144   1.291   0.713   0.665  0.5089  0.5845  0.1093
 1352SOL    HW1 4145   1.260   0.786   0.719 -0.2173  1.0690 -0.9153
 1352SOL    HW2 4146   1.211   0.679   0.625  1.1611  1.1748 -1.7827
 1353SOL     OW 4147   0.020   0.345   3.655 -0.1009 -0.5042 -0.3688
 1353SOL    HW1 4148   0.014   0.380   3.744  1.5444 -0.2120 -0.3461
 1353SOL    HW2 4149  -0.032   0.405   3.602 -0.4228 -0.2114  0.2696
 1354SOL     OW 4150   3.036   1.935   1.282 -0.5234  0.4736  1.0020
 1354SOL    HW1 4151   3.035   1.846   1.245 -0.0127  0.1912  1.6530
 1354SOL    HW2 4152   2.962   1.978   1.240 -1.0011 -0.3738  0.9413
 1355SOL     OW 4153   2.869   2.757   2.113 -0.1079 -0.1899 -0.3816
 1355SOL    HW1 4154   2.794   2.799   2.154  0.0399 -0.6942  0.4526
 1355SOL    HW2 4155   2.942   2.818   2.127 -0.7941  1.5064 -3.4175
 1356SOL     OW 4156   0.198   1.582   2.259 -0.4940 -0.3217 -0.0531
 1356SOL    HW1 4157   0.118   1.540   2.229  0.5099 -2.4699  0.1136
 1356SOL    HW2 4158   0.194   1.670   2.221 -1.7630 -1.1754 -2.1095
 1357SOL     OW 4159   1.582   3.210   3.092 -0.1906  0.1882 -0.2571
 1357SOL    HW1 4160   1.643   3.186   3.161 -1.0114 -0.8792  0.1311
 1357SOL    HW2 4161   1.519   3.269   3.134 -0.8394 -0.6637 -0.0029
 1358SOL     OW 4162   0.109   3.682   3.271  0.1691  0.3031  0.2202
 1358SOL    HW1 4163   0.082   3.722   3.353  1.1225 -0.7239  1.0713
 1358SOL    HW2 4164   0.197   3.717   3.255  0.8080 -1.0128  0.7108
 1359SOL     OW 4165   3.875   1.884   0.736 -0.3015 -0.1841 -0.4818
 1359SOL    HW1 4166   3.818   1.903   0.810 -0.4480  1.6568 -1.0091
 1359SOL    HW2 4167   3.963   1.883   0.773 -0.4255  0.0639 -0.1767
 1360SOL     OW 4168   2.144   0.481   3.371 -0.2695 -1.0422  0.1969
 1360SOL    HW1 4169   2.068   0.520   3.413 -0.8393 -1.7589 -0.1566
 1360SOL    HW2 4170   2.114   0.457   3.284  0.4714 -0.9728 -0.0822
 1361SOL     OW 4171   3.445   2.139   2.386 -0.4630  0.0446 -0.2221
 1361SOL    HW1 4172   3.514   2.073   2.391  0.7743  1.3034  0.3198
 1361SOL    HW2 4173   3.374   2.097   2.337  0.8621 -1.1498 -1.2086
 1362SOL     OW 4174   0.379   3.296   1.897 -0.2618 -0.4733 -0.3657
 1362SOL    HW1 4175   0.300   3.341   1.868 -0.1877 -0.4003 -0.4579
 1362SOL    HW2 4176   0.360   3.203   1.882 -0.2795 -0.4462 -0.5147
 1363SOL     OW 4177   2.113   0.489   0.136  0.2021  0.1193  0.5365
 1363SOL    HW1 4178   2.111   0.448   0.223 -0.1950 -1.5542 -0.2348
 1363SOL    HW2 4179   2.093   0.418   0.075 -2.6360  1.8408 -0.7315
 1364SOL     OW 4180   1.876   1.293   3.586 -0.1097  0.0458  0.1778
 1364SOL    HW1 4181   1.803   1.251   3.631 -0.2939  0.5075  0.3194
 1364SOL    HW2 4182   1.870   1.385   3.613  0.5954  0.0614  0.2897
 1365SOL     OW 4183   3.548   3.844   1.567  0.2538  0.0902 -0.6478
 1365SOL    HW1 4184   3.545   3.762   1.517  0.4561  0.4979 -1.3304
 1365SOL    HW2 4185   3.526   3.912   1.504 -0.9147  0.4815  0.1378
 1366SOL     OW 4186   3.287   2.119   3.544 -0.4995  0.0752 -0.2237
 1366SOL    HW1 4187   3.327   2.032   3.556 -0.7407 -0.1349 -0.8785
 1366SOL    HW2 4188   3.296   2.161   3.629 -0.3775 -0.5952  0.1077
 1367SOL     OW 4189   1.002   0.977   3.095 -0.0778  0.6333  0.0117
 1367SOL    HW1 4190   0.960   1.016   3.018  0.7829 -2.7083 -2.3919
 1367SOL    HW2 4191   0.933   0.925   3.136  0.2373 -0.1721 -0.4617
 1368SOL     OW 4192   0.599   1.288   3.138  0.0792 -0.5747 -0.3710
 1368SOL    HW1 4193   0.546   1.348   3.087 -0.8296  1.3108  2.5167
 1368SOL    HW2 4194   0.689   1.302   3.107 -0.0833  2.4841  0.2194
 1369SOL     OW 4195   1.682   0.151   3.339  0.5205  0.6278 -0.1665
 1369SOL    HW1 4196   1.624   0.074   3.335  0.8430  0.4159 -0.9234
 1369SOL    HW2 4197   1.626   0.221   3.371  0.0771  0.2095 -0.0047
 1370SOL     OW 4198   0.550   3.799   0.567 -0.2680 -0.0934 -0.6333
 1370SOL    HW1 4199   0.624   3.770   0.514  0.1222  0.6629 -0.5182
 1370SOL    HW2 4200   0.589   3.834   0.647 -0.7201  0.6709 -0.7368
 1371SOL     OW 4201   3.536   1.175   0.679 -0.5886  0.4212  0.1499
 1371SOL    HW1 4202   3.532   1.271   0.677  1.0932  0.5963  1.9373
 1371SOL    HW2 4203   3.549   1.149   0.588 -1.3113  1.8500 -0.3969
 1372SOL     OW 4204   3.450   1.705   1.545  0.2676 -0.3728 -0.1366
 1372SOL    HW1 4205   3.532   1.680   1.501 -0.2866  1.0208 -2.1475
 1372SOL    HW2 4206   3.462   1.678   1.636  2.8361 -0.4874 -0.4285
 1373SOL     OW 4207   1.353   1.996   3.110 -0.6329 -0.4580 -0.1284
 1373SOL    HW1 4208   1.441   2.002   3.146 -1.1840  1.7627  1.0418
 1373SOL    HW2 4209   1.366   2.010   3.016  0.4160 -2.2041 -0.2903
 1374SOL     OW 4210   0.160   2.186   1.990 -0.5168 -0.3487  0.1416
 1374SOL    HW1 4211   0.153   2.279   1.969 -0.4402  0.3461  2.8347
 1374SOL    HW2 4212   0.074   2.150   1.968 -1.3126  0.8704  1.0887
 1375SOL     OW 4213   3.457   0.821   1.401  0.3122 -0.0854  0.6224
 1375SOL    HW1 4214   3.536   0.872   1.385 -0.3863  0.9449  0.4000
 1375SOL    HW2 4215   3.409   0.822   1.317  0.0300 -0.6532  0.7663
 1376SOL     OW 4216   3.564   1.064   3.316  0.0291 -0.0738 -0.0650
 1376SOL    HW1 4217   3.611   1.108   3.245 -0.6984  1.1720  0.1817
 1376SOL    HW2 4218   3.480   1.038   3.276  0.3615 -1.0710 -0.1459
 1377SOL     OW 4219   1.041   0.346   0.366  0.2603 -0.5254  0.2437
 1377SOL    HW1 4220   1.075   0.283   0.430  1.2517 -0.6823 -0.4185
 1377SOL    HW2 4221   0.982   0.294   0.311  0.3799 -0.6666  0.2495
 1378SOL     OW 4222   2.178   2.619   0.373  0.0728 -0.2642  0.3501
 1378SOL    HW1 4223   2.197   2.533   0.335  0.5927  0.4324 -1.0596
 1378SOL    HW2 4224   2.132   2.666   0.303 -0.0026  0.6709  1.0122
 1379SOL     OW 4225   3.236   2.564   3.408 -0.4239 -0.2821 -0.0921
 1379SOL    HW1 4226   3.166   2.627   3.390 -0.0902 -0.0953 -0.7677
 1379SOL    HW2 4227   3.317   2.615   3.399 -0.1966 -0.4872  0.7089
 1380SOL     OW 4228   2.393   0.575   3.427 -0.3059 -0.1512 -0.4826
 1380SOL    HW1 4229   2.451   0.522   3.482 -0.0324  0.3195 -0.3143
 1380SOL    HW2 4230   2.316   0.519   3.413  0.2929 -0.8827 -0.9205
 1381SOL     OW 4231   2.403   2.216   1.141  0.1960  0.1221 -0.7197
 1381SOL    HW1 4232   2.487   2.254   1.164  0.0480  0.9769 -1.5443
 1381SOL    HW2 4233   2.362   2.280   1.082 -1.3111  0.0428  0.1756
 1382SOL     OW 4234   0.502   2.073   1.211 -0.1508  0.5496  0.1864
 1382SOL    HW1 4235   0.559   2.103   1.281  0.0561  0.7753 -0.0741
 1382SOL    HW2 4236   0.414   2.096   1.240 -0.1476 -0.1032  0.7445
 1383SOL     OW 4237   1.612   0.342   1.544 -0.3074 -0.6771 -0.1522
 1383SOL    HW1 4238   1.601   0.277   1.474 -0.6332 -1.1311  0.3123
 1383SOL    HW2 4239   1.550   0.315   1.611  0.2610 -0.4571  0.4691
 1384SOL     OW 4240   3.733   2.165   3.668 -0.0184 -0.0707  0.1865
 1384SOL    HW1 4241   3.801   2.104   3.696  0.4213  0.7854  1.0438
 1384SOL    HW2 4242   3.773   2.216   3.598 -0.4506 -0.8661 -0.6652
 1385SOL     OW 4243   1.141   1.962   1.639  0.3652 -0.6628  0.0679
 1385SOL    HW1 4244   1.192   1.917   1.707 -1.2539 -2.7322  0.0111
 1385SOL    HW2 4245   1.162   1.915   1.558  2.3619  1.8512 -1.0084
 1386SOL     OW 4246   2.113   0.775   1.052 -0.3096  0.5127  0.8092
 1386SOL    HW1 4247   2.207   0.768   1.066 -0.6363 -2.3689  2.3440
 1386SOL    HW2 4248   2.097   0.730   0.969 -0.2667  1.9935 -0.0338
 1387SOL     OW 4249   3.774   1.057   2.581 -0.0736 -0.4600  0.2186
 1387SOL    HW1 4250   3.739   0.969   2.563  0.4267 -1.1180  2.1661
 1387SOL    HW2 4251   3.864   1.041   2.609  0.2291  0.7481 -0.0451
 1388SOL     OW 4252   1.935   1.466   1.692  0.1116 -0.3341 -0.1949
 1388SOL    HW1 4253   2.017   1.417   1.687 -1.1022 -2.5476 -0.1117
 1388SOL    HW2 4254   1.961   1.558   1.694  2.5534 -0.9566 -0.3389
 1389SOL     OW 4255   0.848   0.093   1.492 -0.2651 -0.2984 -0.1250
 1389SOL    HW1 4256   0.762   0.129   1.513 -0.0628 -0.5999  1.2863
 1389SOL    HW2 4257   0.871   0.135   1.409 -2.2731 -1.1210 -1.1855
 1390SOL     OW 4258   2.917   1.941   2.997  0.1601  0.5026  0.1387
 1390SOL    HW1 4259   3.013   1.932   3.000  0.1127  0.0991  0.6523
 1390SOL    HW2 4260   2.890   1.942   3.089 -0.4352 -0.6967 -0.0002
 1391SOL     OW 4261   2.863   3.479   3.236 -0.0149  0.4617 -0.0438
 1391SOL    HW1 4262   2.912   3.420   3.179 -0.2704 -0.0912  0.3017
 1391SOL    HW2 4263   2.809   3.421   3.290  1.1638  0.8875  1.6669
 1392SOL     OW 4264   2.164   2.053   1.121  0.0104  0.3640 -0.1106
 1392SOL    HW1 4265   2.099   2.098   1.176 -1.1284  0.1887 -1.2711
 1392SOL    HW2 4266   2.216   2.123   1.082  0.7201  0.4974  1.0268
 1393SOL     OW 4267   1.121   0.221   0.576  0.1960 -0.6778  0.2345
 1393SOL    HW1 4268   1.167   0.236   0.658  0.2098 -1.6576  0.4188
 1393SOL    HW2 4269   1.034   0.190   0.602 -0.2543  0.2106 -0.1207
 1394SOL     OW 4270   0.923   1.729   0.902 -0.8495  0.3472 -0.0675
 1394SOL    HW1 4271   1.011   1.709   0.932 -0.9858  0.9543  0.7660
 1394SOL    HW2 4272   0.906   1.666   0.832 -0.0346 -0.2391  0.2596
 1395SOL     OW 4273   0.391   2.633   0.802  0.0762  0.0526  0.0920
 1395SOL    HW1 4274   0.342   2.661   0.879  0.1919 -0.2837  0.2885
 1395SOL    HW2 4275   0.368   2.541   0.791  0.0106  0.1159 -0.3149
 1396SOL     OW 4276   1.796   1.316   0.896  0.0747 -0.0109 -0.4911
 1396SOL    HW1 4277   1.715   1.357   0.928 -1.0046 -2.6095  0.4217
 1396SOL    HW2 4278   1.863   1.384   0.906 -1.3934  1.2558  1.6780
 1397SOL     OW 4279   3.136   1.495   2.851  0.3340  0.1045  0.4704
 1397SOL    HW1 4280   3.161   1.534   2.934 -0.0984  1.1201  0.1369
 1397SOL    HW2 4281   3.093   1.566   2.802  0.0460 -0.6275 -0.3798
 1398SOL     OW 4282   0.071   0.424   1.973 -0.1837  0.5880 -0.2496
 1398SOL    HW1 4283   0.078   0.357   1.905  0.5562  0.4338 -0.0373
 1398SOL    HW2 4284   0.004   0.391   2.033  0.9787 -0.5642  0.4833
 1399SOL     OW 4285   1.352   3.828   2.565 -0.3451 -0.0515  0.0810
 1399SOL    HW1 4286   1.300   3.813   2.486  0.7946  0.7924 -0.8600
 1399SOL    HW2 4287   1.441   3.845   2.533 -0.3678  3.0864  1.3305
 1400SOL     OW 4288   1.208   3.243   3.450 -0.5904  0.1927 -0.1327
 1400SOL    HW1 4289   1.204   3.208   3.361 -2.4944 -0.9890  0.3532
 1400SOL    HW2 4290   1.117   3.249   3.477 -0.1211  2.0245  1.2022
 1401SOL     OW 4291   2.688   0.320   1.630 -0.3044  0.5847 -0.8504
 1401SOL    HW1 4292   2.627   0.333   1.703 -1.5659  0.5460 -1.8556
 1401SOL    HW2 4293   2.768   0.288   1.670 -1.4210 -0.7837  0.4031
 1402SOL     OW 4294   0.400   0.271   1.963 -0.0616  0.3481 -0.1698
 1402SOL    HW1 4295   0.317   0.248   1.919  0.1356  0.3311 -0.5385
 1402SOL    HW2 4296   0.456   0.194   1.949 -0.2886 -0.0238  0.8740
 1403SOL     OW 4297   0.652   0.618   2.951 -0.2792  0.6105  0.2639
 1403SOL    HW1 4298   0.578   0.632   2.892 -0.4392 -0.0048  0.3167
 1403SOL    HW2 4299   0.614   0.626   3.039 -0.1485  0.9692  0.2904
 1404SOL     OW 4300   1.783   2.035   3.468 -0.5130  0.5532 -0.3058
 1404SOL    HW1 4301   1.774   2.113   3.522  2.1055 -0.0247  1.1491
 1404SOL    HW2 4302   1.797   1.964   3.531 -0.1724 -0.6332 -1.6641
 1405SOL     OW 4303   0.110   0.949   3.328 -0.1278 -0.5897  0.3263
 1405SOL    HW1 4304   0.033   0.903   3.359  0.5719 -1.2353  1.1733
 1405SOL    HW2 4305   0.181   0.919   3.385  0.2892  1.8836  1.2447
 1406SOL     OW 4306   2.959   0.911   2.949  0.1898  0.0081  0.5126
 1406SOL    HW1 4307   2.960   0.816   2.939 -0.2889 -0.0173  0.7202
 1406SOL    HW2 4308   3.052   0.935   2.951  0.3215 -0.5254  1.1471
 1407SOL     OW 4309   1.169   2.181   2.312 -0.5773  0.6368  0.0216
 1407SOL    HW1 4310   1.151   2.242   2.240 -0.6174 -0.4046 -0.8761
 1407SOL    HW2 4311   1.249   2.135   2.286 -0.2705  0.6333  0.9139
 1408SOL     OW 4312   2.665   2.343   1.877  0.0735  0.1909 -0.0674
 1408SOL    HW1 4313   2.635   2.344   1.967  1.4120  2.6903  0.4496
 1408SOL    HW2 4314   2.746   2.292   1.879 -0.8355 -1.3090 -0.2613
 1409SOL     OW 4315   0.150   0.682   0.522  0.2845  0.3159 -0.2586
 1409SOL    HW1 4316   0.214   0.701   0.453 -0.0123  0.1021 -0.5931
 1409SOL    HW2 4317   0.197   0.624   0.582  0.3649  0.0480 -0.5755
 1410SOL     OW 4318   2.460   3.202   3.171 -0.1683 -0.1304 -0.1402
 1410SOL    HW1 4319   2.533   3.202   3.109  1.4575  0.0547  1.6789
 1410SOL    HW2 4320   2.465   3.116   3.214 -0.4555  0.2290  0.6281
 1411SOL     OW 4321   2.690   2.826   0.677  0.4414  0.2247 -0.2378
 1411SOL    HW1 4322   2.632   2.855   0.607  0.8503  0.3274 -0.5431
 1411SOL    HW2 4323   2.766   2.884   0.669  0.1672  0.7375  0.7764
 1412SOL     OW 4324   1.765   2.249   1.906 -0.3515 -0.1282 -0.5608
 1412SOL    HW1 4325   1.844   2.303   1.907 -1.9417  2.3233 -0.0273
 1412SOL    HW2 4326   1.771   2.196   1.985  1.1061 -0.5876 -0.9463
 1413SOL     OW 4327   3.799   2.765   3.225  0.1976 -0.2785  0.6115
 1413SOL    HW1 4328   3.880   2.802   3.258  1.4257 -0.6748 -1.7422
 1413SOL    HW2 4329   3.800   2.674   3.255  0.4369 -0.1900  0.8795
 1414SOL     OW 4330   0.291   1.729   2.990 -0.1434  0.9280  0.1908
 1414SOL    HW1 4331   0.210   1.749   2.944 -0.6900 -0.5874  0.4160
 1414SOL    HW2 4332   0.359   1.740   2.925 -0.9953 -2.4566 -1.5507
 1415SOL     OW 4333   0.062   0.784   2.821 -0.1106  0.6060  0.2961
 1415SOL    HW1 4334   0.150   0.792   2.784 -0.1771 -0.7367 -0.1853
 1415SOL    HW2 4335   0.073   0.729   2.899 -0.3467  1.4728  0.9684
 1416SOL     OW 4336   1.472   3.001   2.303  0.3737  0.2152  0.3527
 1416SOL    HW1 4337   1.403   3.066   2.291 -0.1645 -0.3659  0.2006
 1416SOL    HW2 4338   1.549   3.039   2.261 -0.7390 -0.5687 -2.6318
 1417SOL     OW 4339   3.065   1.913   3.579  0.3414  0.2414 -0.8932
 1417SOL    HW1 4340   3.123   1.986   3.602  0.2678  0.0645 -0.1102
 1417SOL    HW2 4341   2.977   1.948   3.589  0.0791 -1.1011  4.0879
 1418SOL     OW 4342   2.122   2.380   1.796  0.1403  0.1040  0.1914
 1418SOL    HW1 4343   2.056   2.358   1.730  0.5469  0.0485 -0.2033
 1418SOL    HW2 4344   2.201   2.396   1.746  0.4389  0.1369  0.6669
 1419SOL     OW 4345   0.004   1.229   3.561 -0.2865  1.0586 -0.4425
 1419SOL    HW1 4346   0.067   1.257   3.627  0.2671  0.2431 -0.6088
 1419SOL    HW2 4347  -0.006   1.135   3.576  0.5805  0.6616 -2.1099
 1420SOL     OW 4348   0.850   2.893   0.463  0.1508  0.1860  0.8208
 1420SOL    HW1 4349   0.895   2.938   0.534 -0.1144 -0.1429  1.2069
 1420SOL    HW2 4350   0.757   2.911   0.479  0.1609  1.2434 -0.2319
 1421SOL     OW 4351   2.632   2.558   3.076  0.3241 -0.1439 -0.5063
 1421SOL    HW1 4352   2.638   2.464   3.097  1.3301  0.2905  1.3652
 1421SOL    HW2 4353   2.543   2.583   3.101  0.4634 -0.3416  0.2029
 1422SOL     OW 4354   3.009   2.695   3.336 -0.2859  0.1094  0.5564
 1422SOL    HW1 4355   2.977   2.727   3.252  0.1207  0.7849  0.6505
 1422SOL    HW2 4356   2.958   2.616   3.353  0.0199 -0.3660 -0.5957
 1423SOL     OW 4357   1.641   1.019   0.608 -0.4909 -0.2644  0.0425
 1423SOL    HW1 4358   1.683   1.104   0.618 -1.7677  0.2599  1.3399
 1423SOL    HW2 4359   1.713   0.956   0.603  0.4523  0.7788  0.2604
 1424SOL     OW 4360   1.465   0.390   0.223 -0.1604 -0.3085 -0.3210
 1424SOL    HW1 4361   1.519   0.418   0.296 -0.5703 -3.0335  1.1600
 1424SOL    HW2 4362   1.526   0.346   0.163 -0.3417 -1.1977  0.1378
 1425SOL     OW 4363   3.877   1.956   1.379 -0.8126 -0.0265 -0.5220
 1425SOL    HW1 4364   3.872   1.861   1.391 -0.6338 -0.0880 -0.9375
 1425SOL    HW2 4365   3.970   1.974   1.366 -0.7722  0.2808  0.1450
 1426SOL     OW 4366   2.658   3.056   2.614  0.0236  0.2086  0.3479
 1426SOL    HW1 4367   2.598   3.077   2.541  1.4774  0.5588 -0.7963
 1426SOL    HW2 4368   2.617   3.098   2.690 -0.6631  1.3541 -0.5956
 1427SOL     OW 4369   1.615   3.056   0.382  0.3345 -0.1241 -0.3052
 1427SOL    HW1 4370   1.630   3.130   0.323  0.6462  0.1118  0.0664
 1427SOL    HW2 4371   1.539   3.083   0.433  3.1913  2.1423  3.2146
 1428SOL     OW 4372   1.427   2.696   0.400 -0.5017 -0.1450  0.2922
 1428SOL    HW1 4373   1.405   2.604   0.415 -0.1364 -0.2290  0.3079
 1428SOL    HW2 4374   1.523   2.699   0.404 -0.4218 -0.0153 -1.1723
 1429SOL     OW 4375   0.404   2.132   2.905 -0.3134 -0.5047 -0.4876
 1429SOL    HW1 4376   0.348   2.088   2.968  1.3367  0.2337  1.5904
 1429SOL    HW2 4377   0.480   2.075   2.895  0.6878  0.6473  0.3131
 1430SOL     OW 4378   3.734   0.774   2.616 -0.0555 -0.0801 -0.2259
 1430SOL    HW1 4379   3.791   0.797   2.689 -0.2448  2.8314 -0.8690
 1430SOL    HW2 4380   3.705   0.685   2.635  3.1411 -0.9748  1.0800
 1431SOL     OW 4381   2.554   3.201   2.118  0.4299 -0.1029  0.2419
 1431SOL    HW1 4382   2.475   3.149   2.101 -0.6092  1.4318  0.2377
 1431SOL    HW2 4383   2.611   3.184   2.042 -1.1028  0.9738 -1.2192
 1432SOL     OW 4384   3.418   0.582   0.461 -0.0395 -0.1507  0.2642
 1432SOL    HW1 4385   3.455   0.515   0.519 -1.4904 -1.8488 -0.6539
 1432SOL    HW2 4386   3.371   0.532   0.394 -1.7667  1.8140 -0.0858
 1433SOL     OW 4387   2.029   1.082   3.204 -0.1109  0.0898 -0.7050
 1433SOL    HW1 4388   2.118   1.090   3.238  0.2574 -2.4325 -0.8655
 1433SOL    HW2 4389   1.975   1.129   3.267  1.4949  4.1889 -2.0691
 1434SOL     OW 4390   2.613   1.557   3.322  0.4043  0.0525  0.2204
 1434SOL    HW1 4391   2.589   1.649   3.333 -1.1960 -0.2860 -0.1960
 1434SOL    HW2 4392   2.575   1.513   3.398  0.8426 -0.3192  0.2249
 1435SOL     OW 4393   0.080   1.230   3.310 -0.7025  0.6122 -0.4664
 1435SOL    HW1 4394   0.036   1.240   3.394 -2.2161  1.8531 -1.3669
 1435SOL    HW2 4395   0.094   1.135   3.302  0.4460  0.5372  1.6109
 1436SOL     OW 4396   1.427   2.124   3.409 -0.6937  0.3165  0.1773
 1436SOL    HW1 4397   1.478   2.086   3.337 -0.7540 -0.0053  0.3012
 1436SOL    HW2 4398   1.462   2.213   3.419 -0.8779  0.4657 -0.4363
 1437SOL     OW 4399   1.046   3.687   0.646  0.5452  0.1464 -0.1200
 1437SOL    HW1 4400   1.124   3.641   0.615  0.0013 -0.0934 -1.1903
 1437SOL    HW2 4401   1.004   3.719   0.566  0.8331  2.4247  0.5717
 1438SOL     OW 4402   2.411   0.215   1.478  0.0223  0.4592  0.1120
 1438SOL    HW1 4403   2.332   0.216   1.532  0.4964 -0.6227  0.8524
 1438SOL    HW2 4404   2.480   0.250   1.535  0.3327  0.2261 -0.1111
 1439SOL     OW 4405   2.803   0.233   0.200 -0.0700  0.3536 -0.3807
 1439SOL    HW1 4406   2.823   0.203   0.289 -1.3639  1.2286  0.2417
 1439SOL    HW2 4407   2.761   0.318   0.213 -0.6473  0.3108 -1.8042
 1440SOL     OW 4408   1.547   3.148   2.838  0.5789  0.3798  0.4063
 1440SOL    HW1 4409   1.616   3.081   2.837 -0.0636 -0.3403  1.3038
 1440SOL    HW2 4410   1.531   3.164   2.931  1.5722  2.7337  0.2263
 1441SOL     OW 4411   2.680   2.909   1.967 -0.1695 -0.0108 -0.0586
 1441SOL    HW1 4412   2.615   2.910   1.897 -0.9375  0.3585  0.6333
 1441SOL    HW2 4413   2.654   2.835   2.023 -0.2344  0.3653  0.4208
 1442SOL     OW 4414   3.810   1.677   0.199 -0.0352  0.3806 -0.2196
 1442SOL    HW1 4415   3.796   1.584   0.181  2.2839 -0.6027  2.3552
 1442SOL    HW2 4416   3.805   1.684   0.294  0.2841  2.8085 -0.3235
 1443SOL     OW 4417   2.498   0.006   1.697 -0.8363  0.0217  0.0600
 1443SOL    HW1 4418   2.423   0.042   1.745 -1.5692  0.8664 -1.6082
 1443SOL    HW2 4419   2.458  -0.055   1.634  0.2204 -2.2210  1.4201
 1444SOL     OW 4420   3.439   0.056   3.640 -0.5569 -0.4441 -0.3840
 1444SOL    HW1 4421   3.394   0.100   3.568  1.0470 -0.6231 -1.5529
 1444SOL    HW2 4422   3.476   0.127   3.692 -0.7451 -0.3398 -0.3917
 1445SOL     OW 4423   2.008   1.434   0.144  0.3860 -0.6715 -0.0383
 1445SOL    HW1 4424   2.014   1.346   0.108 -0.2283 -0.4890 -0.5874
 1445SOL    HW2 4425   1.915   1.453   0.149  0.4082 -0.8154  1.9723
 1446SOL     OW 4426   2.294   1.850   2.725 -0.0012  0.2059 -0.0924
 1446SOL    HW1 4427   2.202   1.872   2.712  0.1198  1.2199  0.6766
 1446SOL    HW2 4428   2.342   1.913   2.671  0.2479 -1.3313 -1.8153
 1447SOL     OW 4429   2.011   0.728   0.440 -0.4684 -0.0001 -0.2881
 1447SOL    HW1 4430   1.959   0.782   0.499 -0.9855 -0.3096 -0.4521
 1447SOL    HW2 4431   1.953   0.657   0.415  0.0171 -0.3218 -0.5249
 1448SOL     OW 4432   1.186   2.672   0.198  0.2270  0.5845  0.0483
 1448SOL    HW1 4433   1.252   2.697   0.263  0.3753  1.8671 -0.5530
 1448SOL    HW2 4434   1.205   2.580   0.178  1.4385  0.7474  0.3636
 1449SOL     OW 4435   3.020   0.991   0.632 -0.1755  0.1396 -0.4780
 1449SOL    HW1 4436   2.964   0.984   0.555  0.7008 -0.8419 -1.0595
 1449SOL    HW2 4437   3.090   1.051   0.606  0.0630 -0.1081 -0.4113
 1450SOL     OW 4438   0.482   1.056   0.657 -0.3574 -0.3602  0.5368
 1450SOL    HW1 4439   0.568   1.058   0.615 -0.2501 -0.5195  0.7476
 1450SOL    HW2 4440   0.443   0.973   0.628 -0.0024 -0.8064  1.3022
 1451SOL     OW 4441   2.117   0.547   3.105  0.6611  0.5429  0.2485
 1451SOL    HW1 4442   2.036   0.591   3.130 -0.3585 -1.2596  0.3159
 1451SOL    HW2 4443   2.186   0.608   3.129 -0.6330  1.8300  0.8688
 1452SOL     OW 4444   1.189   2.846   2.664 -0.1574  0.4317 -0.0343
 1452SOL    HW1 4445   1.112   2.809   2.708 -1.4830  1.9520 -0.9760
 1452SOL    HW2 4446   1.236   2.892   2.734  0.2434 -0.9894  0.6660
 1453SOL     OW 4447   1.525   1.735   3.465 -1.1267 -0.9204  0.0657
 1453SOL    HW1 4448   1.507   1.803   3.530 -2.9661 -1.5194  0.2277
 1453SOL    HW2 4449   1.609   1.698   3.491 -0.4033  0.8276  0.3552
 1454SOL     OW 4450   2.509   1.656   0.001  0.6408  0.0255  0.1901
 1454SOL    HW1 4451   2.457   1.590   0.046 -0.3785  1.7318  1.6713
 1454SOL    HW2 4452   2.599   1.630   0.015  0.3320  0.0627  2.6692
 1455SOL     OW 4453   3.174   0.257   1.753  0.9207 -0.3120  0.0958
 1455SOL    HW1 4454   3.213   0.298   1.830 -0.7931  0.6374  0.5345
 1455SOL    HW2 4455   3.213   0.170   1.749  1.0959 -0.3738  2.0261
 1456SOL     OW 4456   0.641   1.235   1.992  0.2895  0.2032  0.2115
 1456SOL    HW1 4457   0.641   1.257   2.085 -0.0309  2.0110 -0.1778
 1456SOL    HW2 4458   0.718   1.179   1.980  0.4114  0.0738  1.5302
 1457SOL     OW 4459   2.521   2.892   1.730 -0.1172  0.2416  0.1165
 1457SOL    HW1 4460   2.449   2.851   1.681  0.4674 -0.9420  0.2228
 1457SOL    HW2 4461   2.567   2.945   1.664 -0.0368 -0.4027 -0.3579
 1458SOL     OW 4462   2.080   1.449   1.215  0.2799  0.1040 -0.0348
 1458SOL    HW1 4463   2.013   1.435   1.282 -0.6090  0.9151 -0.7352
 1458SOL    HW2 4464   2.147   1.502   1.258  1.2480 -1.9156  1.1223
 1459SOL     OW 4465   3.473   1.246   1.376 -0.3050 -0.0478  0.2604
 1459SOL    HW1 4466   3.520   1.234   1.293 -2.0259 -0.4723 -0.7093
 1459SOL    HW2 4467   3.389   1.284   1.351 -1.0409 -0.5884  1.7616
 1460SOL     OW 4468   1.150   2.812   3.415 -0.1996 -0.4204 -0.1596
 1460SOL    HW1 4469   1.184   2.872   3.481  1.3138 -0.9198 -0.4484
 1460SOL    HW2 4470   1.058   2.799   3.439 -1.1457  3.3431 -1.0639
 1461SOL     OW 4471   0.170   2.001   2.969  0.7433 -0.2568  0.2564
 1461SOL    HW1 4472   0.097   2.062   2.971  1.6564  0.8921 -0.0370
 1461SOL    HW2 4473   0.163   1.957   2.884 -0.7942 -1.7133  1.0880
 1462SOL     OW 4474   1.558   0.245   1.001 -0.6410 -0.0592  0.2950
 1462SOL    HW1 4475   1.612   0.173   0.968  3.1259  1.7410  1.9091
 1462SOL    HW2 4476   1.580   0.319   0.946 -0.7265  0.9617  1.5822
 1463SOL     OW 4477   1.882   0.924   1.091 -0.5461 -0.1790  0.7384
 1463SOL    HW1 4478   1.898   1.015   1.070 -1.2738 -0.7622 -3.0738
 1463SOL    HW2 4479   1.964   0.879   1.073 -0.6708 -0.5250  0.9901
 1464SOL     OW 4480   0.930   0.584   0.219  0.4641 -0.0672 -0.1341
 1464SOL    HW1 4481   0.855   0.588   0.279 -0.2705 -0.5840 -1.0040
 1464SOL    HW2 4482   0.993   0.527   0.264  0.4377  0.5196  0.6860
 1465SOL     OW 4483   1.462   2.113   3.799 -0.1214  0.1624 -0.5489
 1465SOL    HW1 4484   1.390   2.177   3.799 -0.6698 -0.4536 -0.5959
 1465SOL    HW2 4485   1.429   2.040   3.747 -0.0135 -0.7443  0.6208
 1466SOL     OW 4486   2.354   0.696   3.179 -0.7587 -0.3987 -0.6888
 1466SOL    HW1 4487   2.392   0.671   3.263 -0.0713  0.5843 -0.6786
 1466SOL    HW2 4488   2.429   0.696   3.118 -0.9614  0.3524 -0.9535
 1467SOL     OW 4489   1.784   1.064   2.629 -0.1426 -0.3975 -0.1384
 1467SOL    HW1 4490   1.859   1.124   2.619 -0.4495 -0.0215 -0.1883
 1467SOL    HW2 4491   1.799   1.022   2.714  0.5935 -0.9841 -0.5380
 1468SOL     OW 4492   1.219   0.830   3.824  0.4313 -0.3775 -0.8585
 1468SOL    HW1 4493   1.219   0.925   3.814  1.2628 -0.2550  0.1135
 1468SOL    HW2 4494   1.311   0.804   3.818  0.2697 -1.0586 -0.6013
 1469SOL     OW 4495   0.239   3.056   0.880  0.8439  0.1002 -0.5064
 1469SOL    HW1 4496   0.174   3.123   0.860  0.7927 -0.0859 -0.9814
 1469SOL    HW2 4497   0.313   3.104   0.918  0.2089  0.2526  0.6026
 1470SOL     OW 4498   1.896   1.484   1.425  0.0771  0.5854 -0.3682
 1470SOL    HW1 4499   1.833   1.557   1.422 -1.0262 -0.2667  0.8916
 1470SOL    HW2 4500   1.900   1.460   1.518  0.6705 -0.7516 -0.7163
 1471SOL     OW 4501   3.509   1.563   1.767 -0.1682  0.2395  0.0822
 1471SOL    HW1 4502   3.570   1.502   1.726  0.3197 -1.2594  2.7719
 1471SOL    HW2 4503   3.455   1.508   1.824 -1.6841  1.9844  0.4234
 1472SOL     OW 4504   1.292   0.812   3.049 -0.1693  0.1026  0.2908
 1472SOL    HW1 4505   1.251   0.882   2.999 -0.7727 -0.8729 -0.6296
 1472SOL    HW2 4506   1.325   0.751   2.982 -0.2964 -0.8506  1.0691
 1473SOL     OW 4507   2.221   1.088   3.513 -0.0820  0.3248 -0.1429
 1473SOL    HW1 4508   2.126   1.078   3.519 -0.0951  0.3935 -0.2246
 1473SOL    HW2 4509   2.234   1.141   3.434  0.0575 -0.2862 -0.5388
 1474SOL     OW 4510   0.847   1.621   1.883  0.4511 -0.5169  0.3484
 1474SOL    HW1 4511   0.873   1.713   1.870 -1.1927 -0.1337 -0.5563
 1474SOL    HW2 4512   0.897   1.573   1.817  0.4008 -0.0878 -0.0084
 1475SOL     OW 4513   1.043   0.609   3.123 -0.5285  0.0408 -0.1118
 1475SOL    HW1 4514   1.044   0.677   3.055  1.8484  0.0858 -0.1186
 1475SOL    HW2 4515   0.986   0.645   3.191 -0.5370  1.3670 -0.7723
 1476SOL     OW 4516   3.484   0.039   3.286  0.2354  0.1144  0.1224
 1476SOL    HW1 4517   3.515  -0.030   3.228 -0.0730 -0.1780  0.3043
 1476SOL    HW2 4518   3.553   0.105   3.283 -0.0488  0.3773 -1.0403
 1477SOL     OW 4519   0.698   2.177   1.436 -0.1766  0.1607  0.1428
 1477SOL    HW1 4520   0.781   2.145   1.472 -0.7887 -1.3184  0.3278
 1477SOL    HW2 4521   0.721   2.255   1.387  1.4864 -0.7369 -0.5777
 1478SOL     OW 4522   1.881   2.177   1.454  0.7326  0.4839  0.0020
 1478SOL    HW1 4523   1.930   2.259   1.465  1.9656 -0.1696 -0.3955
 1478SOL    HW2 4524   1.835   2.188   1.370 -0.5736  1.4607  0.8105
 1479SOL     OW 4525   2.212   1.839   0.138 -0.3151 -0.2929 -0.2584
 1479SOL    HW1 4526   2.201   1.749   0.108 -0.2518 -0.3140 -0.2197
 1479SOL    HW2 4527   2.131   1.884   0.111  0.0744 -0.1148 -1.1567
 1480SOL     OW 4528   2.787   0.659   1.587 -0.8286  0.1718  0.0014
 1480SOL    HW1 4529   2.733   0.700   1.655  1.5949 -0.2438  2.3489
 1480SOL    HW2 4530   2.764   0.566   1.590 -0.7832  0.1671  0.1998
 1481SOL     OW 4531   3.455   1.452   1.094  0.2263  0.0487 -0.2254
 1481SOL    HW1 4532   3.490   1.500   1.019  1.8938 -0.7315  0.0140
 1481SOL    HW2 4533   3.436   1.520   1.159  1.2744  0.5125 -0.3841
 1482SOL     OW 4534   3.759   0.675   3.081 -0.2584  0.1888  0.1445
 1482SOL    HW1 4535   3.766   0.762   3.042 -0.6568 -0.4804 -1.5325
 1482SOL    HW2 4536   3.719   0.690   3.166  1.1499  1.7927  0.5876
 1483SOL     OW 4537   1.723   1.402   0.158 -0.5514 -0.0881 -0.0329
 1483SOL    HW1 4538   1.658   1.436   0.220  0.8367 -0.1777  1.5333
 1483SOL    HW2 4539   1.765   1.329   0.204  0.2905 -0.3895 -1.2275
 1484SOL     OW 4540   3.874   1.938   3.726  0.2166 -0.2392 -0.0405
 1484SOL    HW1 4541   3.910   1.855   3.759 -0.7393 -1.6661 -2.3109
 1484SOL    HW2 4542   3.919   1.952   3.643 -1.1877  0.3341 -0.7398
 1485SOL     OW 4543   0.263   3.401   1.172  0.0111  0.2324 -0.3201
 1485SOL    HW1 4544   0.252   3.458   1.096 -0.4918  1.1840  0.4500
 1485SOL    HW2 4545   0.320   3.450   1.231 -1.2409  0.4058  0.7918
 1486SOL     OW 4546   2.810   1.874   2.213  0.1841  0.3091 -0.5014
 1486SOL    HW1 4547   2.724   1.915   2.221 -0.5895 -1.1552 -0.9924
 1486SOL    HW2 4548   2.808   1.830   2.128  1.6645  0.7856 -0.8083
 1487SOL     OW 4549   0.773   3.622   3.205 -0.1496  0.2887 -0.2555
 1487SOL    HW1 4550   0.708   3.655   3.266 -0.8649  2.1932 -1.9378
 1487SOL    HW2 4551   0.746   3.532   3.186 -3.4765  1.5480 -2.2879
 1488SOL     OW 4552   3.691   2.377   0.272 -0.0371  0.9267 -0.2109
 1488SOL    HW1 4553   3.612   2.376   0.218 -0.4745  1.7473  0.4037
 1488SOL    HW2 4554   3.712   2.469   0.284  0.4952  0.7381  0.3860
 1489SOL     OW 4555   1.353   0.445   3.707  0.4220  0.8795 -0.1347
 1489SOL    HW1 4556   1.392   0.512   3.763  1.6057  0.3310 -0.2888
 1489SOL    HW2 4557   1.261   0.443   3.734  1.2158 -0.5069  3.0113
 1490SOL     OW 4558   3.302   1.261   0.970  0.1827 -0.0569  0.0576
 1490SOL    HW1 4559   3.216   1.287   1.001  0.0066 -1.8546  1.1868
 1490SOL    HW2 4560   3.362   1.327   1.005 -0.4666 -0.0560  1.1991
 1491SOL     OW 4561   3.193   2.706   1.676  0.6038 -0.5613 -0.4269
 1491SOL    HW1 4562   3.234   2.619   1.685  1.2243 -0.1452  1.1372
 1491SOL    HW2 4563   3.249   2.764   1.728  0.4857  0.8963 -1.8618
 1492SOL     OW 4564   0.600   2.819   2.234 -0.0381 -0.0748  0.5803
 1492SOL    HW1 4565   0.512   2.809   2.270  0.3180  0.0865  1.5027
 1492SOL    HW2 4566   0.630   2.729   2.217 -0.4143 -0.1251  0.1688
 1493SOL     OW 4567   2.926   2.608   0.422  0.0193  0.2275  0.3884
 1493SOL    HW1 4568   2.845   2.648   0.393 -1.0644 -1.4682  0.9203
 1493SOL    HW2 4569   2.917   2.515   0.399  1.2385 -0.2394  1.6332
 1494SOL     OW 4570   1.089   1.782   1.376 -0.5235 -0.8885 -0.1421
 1494SOL    HW1 4571   0.996   1.803   1.362 -0.5159 -0.7373  0.0305
 1494SOL    HW2 4572   1.087   1.698   1.422 -0.5645 -1.0646 -0.4621
 1495SOL     OW 4573   3.483   2.678   0.253  0.1238  0.7241 -0.1443
 1495SOL    HW1 4574   3.577   2.692   0.260  0.3199  0.6247 -2.0168
 1495SOL    HW2 4575   3.471   2.634   0.169 -1.4144 -1.3204  1.0413
 1496SOL     OW 4576   3.435   2.592   1.328 -0.1487  0.3253 -0.2551
 1496SOL    HW1 4577   3.493   2.583   1.404 -0.0813 -0.6544 -0.4017
 1496SOL    HW2 4578   3.494   2.607   1.254 -0.1590  0.4776 -0.2321
 1497SOL     OW 4579   0.738   0.697   0.734  0.9923  0.3461  0.7738
 1497SOL    HW1 4580   0.828   0.730   0.742  1.2874 -0.6857  2.0825
 1497SOL    HW2 4581   0.746   0.602   0.739 -0.1322  0.2216  0.4435
 1498SOL     OW 4582   2.191   2.273   0.489 -0.3865  0.5882 -0.0853
 1498SOL    HW1 4583   2.224   2.190   0.455  0.3718  0.5124  0.7827
 1498SOL    HW2 4584   2.246   2.339   0.447  0.1191  0.5365  0.4855
 1499SOL     OW 4585   0.991   1.007   0.592 -0.3032 -0.1513 -0.1278
 1499SOL    HW1 4586   0.924   0.941   0.576  0.2234 -0.9362  0.8219
 1499SOL    HW2 4587   1.004   1.007   0.687  1.7355 -0.7442 -0.3585
 1500SOL     OW 4588   2.229   2.957   0.469  0.3048  0.2424  0.1113
 1500SOL    HW1 4589   2.216   2.994   0.556  1.1823  1.2178 -0.1536
 1500SOL    HW2 4590   2.300   3.009   0.431  1.2155 -1.3532 -0.4937
 1501SOL     OW 4591   0.692   1.889   3.373  0.0410 -0.2039 -0.4008
 1501SOL    HW1 4592   0.715   1.908   3.282 -2.4719 -0.4279 -1.1604
 1501SOL    HW2 4593   0.750   1.818   3.399  2.2964  1.2812 -1.0414
 1502SOL     OW 4594   0.351   0.671   0.305  0.2506  0.1449  0.1527
 1502SOL    HW1 4595   0.340   0.618   0.226 -1.3521 -0.4722  0.7378
 1502SOL    HW2 4596   0.361   0.607   0.376  0.8928  0.6790  0.5554
 1503SOL     OW 4597   2.257   0.275   3.680 -0.1596 -0.5695 -0.2310
 1503SOL    HW1 4598   2.185   0.320   3.726  1.0984  2.2200 -0.7618
 1503SOL    HW2 4599   2.240   0.291   3.587  0.4717 -0.9634 -0.4207
 1504SOL     OW 4600   2.457   2.541   2.635 -0.1340 -0.3983  0.0577
 1504SOL    HW1 4601   2.502   2.623   2.656  1.1229 -1.2449  0.7769
 1504SOL    HW2 4602   2.527   2.479   2.617 -1.0856 -0.9696 -2.0077
 1505SOL     OW 4603   0.023   1.341   2.589  0.0880  0.1883 -0.0675
 1505SOL    HW1 4604  -0.024   1.378   2.664 -0.2772 -0.2236 -0.0887
 1505SOL    HW2 4605   0.018   1.246   2.602  1.3754  0.1406  0.2084
 1506SOL     OW 4606   0.598   3.414   1.613  0.2361  0.5104 -0.1101
 1506SOL    HW1 4607   0.595   3.394   1.706 -2.1120  0.2413 -0.1617
 1506SOL    HW2 4608   0.598   3.328   1.571 -2.8869  0.4927 -0.3030
 1507SOL     OW 4609   2.883   1.255   3.624  0.1760 -0.5676 -0.1525
 1507SOL    HW1 4610   2.927   1.321   3.570  0.8198 -1.5655 -0.8939
 1507SOL    HW2 4611   2.912   1.274   3.713 -0.1885  0.5576 -0.2570
 1508SOL     OW 4612   2.438   2.242   3.033 -0.1438  0.8657  0.4443
 1508SOL    HW1 4613   2.407   2.261   2.944  0.5784  2.1146  0.4365
 1508SOL    HW2 4614   2.368   2.275   3.090 -0.1678  0.9714  0.3559
 1509SOL     OW 4615   0.886   1.960   0.016 -0.1927  0.0007 -0.3024
 1509SOL    HW1 4616   0.922   1.889   0.069 -1.1475  2.8083  4.7609
 1509SOL    HW2 4617   0.791   1.955   0.029 -0.3680  1.5282 -0.7325
 1510SOL     OW 4618   2.543   3.581   3.159 -0.0339  0.6874  0.1855
 1510SOL    HW1 4619   2.620   3.570   3.104 -1.2394 -1.9826 -1.1223
 1510SOL    HW2 4620   2.499   3.658   3.123  0.5515  0.5276 -0.9139
 1511SOL     OW 4621   3.321   1.178   3.719  0.0838  0.0364  0.1285
 1511SOL    HW1 4622   3.308   1.272   3.703  1.2874 -0.0463 -1.5895
 1511SOL    HW2 4623   3.414   1.164   3.703  0.5619 -0.9745  3.2196
 1512SOL     OW 4624   1.347   3.178   2.606 -0.2024 -0.1543 -0.4920
 1512SOL    HW1 4625   1.257   3.201   2.584  0.0413  0.7765 -0.5551
 1512SOL    HW2 4626   1.340   3.095   2.653 -1.4286  1.3413  2.2610
 1513SOL     OW 4627   0.479   0.511   2.770  0.0854 -0.4209 -0.1408
 1513SOL    HW1 4628   0.427   0.438   2.804 -0.1490  0.2819  1.0255
 1513SOL    HW2 4629   0.569   0.476   2.766  0.0746 -0.5994  0.9610
 1514SOL     OW 4630   0.672   2.548   2.235  0.2946 -0.2416 -0.2697
 1514SOL    HW1 4631   0.639   2.458   2.238  1.3071 -0.6275 -0.0933
 1514SOL    HW2 4632   0.735   2.553   2.307  0.7262  0.4037 -0.6788
 1515SOL     OW 4633   1.599   0.013   0.891 -0.2360 -0.2656 -0.4828
 1515SOL    HW1 4634   1.609  -0.056   0.956 -0.5592  0.6420  0.5479
 1515SOL    HW2 4635   1.664  -0.008   0.824  0.4426 -0.9432  0.3664
 1516SOL     OW 4636   2.178   1.817   0.620  0.6417 -0.1318 -0.0982
 1516SOL    HW1 4637   2.200   1.898   0.666  1.1517 -0.5640  0.4365
 1516SOL    HW2 4638   2.228   1.822   0.538 -0.6027  0.8383 -0.8407
 1517SOL     OW 4639   2.979   1.298   1.336  0.0428 -0.0596  0.7901
 1517SOL    HW1 4640   2.925   1.359   1.385  0.1992  0.2023  0.6446
 1517SOL    HW2 4641   3.059   1.289   1.389 -1.0295 -2.2333  2.1823
 1518SOL     OW 4642   1.391   3.789   0.553  0.0803  0.2756  0.1611
 1518SOL    HW1 4643   1.481   3.807   0.524  0.5628 -0.6024  1.0727
 1518SOL    HW2 4644   1.337   3.849   0.501  1.0102 -0.4141 -1.6736
 1519SOL     OW 4645   0.870   0.721   2.807  0.3346 -0.1388  0.2988
 1519SOL    HW1 4646   0.793   0.700   2.860  0.8094 -0.7972  0.7329
 1519SOL    HW2 4647   0.837   0.723   2.717 -0.0654 -1.0768  0.4134
 1520SOL     OW 4648   3.095   0.834   1.350 -0.0101 -0.6123  0.2989
 1520SOL    HW1 4649   3.185   0.811   1.326  0.8046  1.3519  1.2579
 1520SOL    HW2 4650   3.050   0.845   1.266  0.7498 -1.1735 -0.1986
 1521SOL     OW 4651   2.114   3.753   0.234 -0.0155  0.2208  0.0551
 1521SOL    HW1 4652   2.188   3.732   0.177 -2.6016 -0.9773 -3.1890
 1521SOL    HW2 4653   2.101   3.848   0.223  0.9235  0.4122  0.5386
 1522SOL     OW 4654   2.631   3.792   1.929 -0.1410 -0.0189 -0.0740
 1522SOL    HW1 4655   2.708   3.749   1.894 -1.3071 -2.1856 -0.1103
 1522SOL    HW2 4656   2.577   3.812   1.853  0.2140  1.2495 -0.0246
 1523SOL     OW 4657   0.179   2.463   3.134  0.3534 -0.1253  0.6847
 1523SOL    HW1 4658   0.172   2.375   3.170 -2.7277  0.7541  2.6467
 1523SOL    HW2 4659   0.257   2.500   3.175  1.0003 -1.5243  0.7728
 1524SOL     OW 4660   2.125   3.355   3.097 -0.2872 -0.3923  0.3238
 1524SOL    HW1 4661   2.036   3.367   3.065  0.0888 -0.1456 -0.6616
 1524SOL    HW2 4662   2.160   3.444   3.104  0.8964 -0.5597 -2.3259
 1525SOL     OW 4663   2.424   0.486   2.524 -0.2468 -0.2939 -0.3471
 1525SOL    HW1 4664   2.451   0.434   2.600  0.2829  1.5194  0.7800
 1525SOL    HW2 4665   2.463   0.442   2.450  0.8778 -1.0522  0.6570
 1526SOL     OW 4666   1.762   0.586   3.667 -0.1033 -0.1998  0.5370
 1526SOL    HW1 4667   1.841   0.639   3.653 -0.5225  0.1987 -0.3514
 1526SOL    HW2 4668   1.740   0.600   3.759 -1.2476  2.6469 -0.0909
 1527SOL     OW 4669   3.505   2.753   0.685 -0.1358  0.0631  0.2297
 1527SOL    HW1 4670   3.560   2.830   0.702 -0.6278  0.8307 -1.3829
 1527SOL    HW2 4671   3.566   2.687   0.651  0.3177 -0.3674  1.7773
 1528SOL     OW 4672   2.356   1.765   3.707  0.1644 -0.6233 -0.3675
 1528SOL    HW1 4673   2.272   1.721   3.722  0.9879 -2.2627 -0.3244
 1528SOL    HW2 4674   2.415   1.728   3.772  0.6313  1.5010  0.5076
 1529SOL     OW 4675   0.533   3.828   1.967 -0.3188 -0.3858  0.1729
 1529SOL    HW1 4676   0.543   3.808   2.060 -0.7663 -0.2564  0.2497
 1529SOL    HW2 4677   0.540   3.743   1.924  2.9474 -0.1724  0.0286
 1530SOL     OW 4678   3.807   0.787   1.461  0.2539  0.2802  0.4236
 1530SOL    HW1 4679   3.793   0.876   1.494 -1.6407  0.3154 -0.3188
 1530SOL    HW2 4680   3.759   0.785   1.378  1.7492 -0.9264 -0.4574
 1531SOL     OW 4681   3.095   2.910   2.133  0.7095  0.3634  0.0253
 1531SOL    HW1 4682   3.139   2.929   2.216 -0.6281  0.3634  0.7554
 1531SOL    HW2 4683   3.116   2.986   2.078  2.4614 -0.1130 -0.0269
 1532SOL     OW 4684   2.703   3.069   0.024 -0.0234 -0.2141  0.1427
 1532SOL    HW1 4685   2.671   3.032  -0.058  0.5118 -1.2907  0.4008
 1532SOL    HW2 4686   2.762   3.139  -0.004 -0.5342  0.0224 -0.3697
 1533SOL     OW 4687   2.123   1.763   3.336  1.0724 -0.4771  0.5029
 1533SOL    HW1 4688   2.067   1.838   3.314  1.6786 -0.0342  0.4475
 1533SOL    HW2 4689   2.068   1.687   3.320  0.6786 -0.0715 -0.1399
 1534SOL     OW 4690   1.824   3.133   0.188 -0.2477 -0.2625  0.2672
 1534SOL    HW1 4691   1.866   3.071   0.248  2.1330  0.9221 -0.0678
 1534SOL    HW2 4692   1.825   3.088   0.104  1.4440  0.1547  0.0298
 1535SOL     OW 4693   2.402   2.412   0.590 -0.1091  0.3884  0.0102
 1535SOL    HW1 4694   2.379   2.499   0.557  0.0477  0.3169 -0.2929
 1535SOL    HW2 4695   2.319   2.369   0.607 -0.1950  0.8936  0.9630
 1536SOL     OW 4696   1.815   1.857   2.017  0.3639  0.6467 -0.6681
 1536SOL    HW1 4697   1.893   1.847   1.962  1.7539 -3.0777  1.6412
 1536SOL    HW2 4698   1.845   1.908   2.092  0.3615 -0.0742 -0.1749
 1537SOL     OW 4699   3.059   2.193   1.641 -0.1592  0.1800  0.3877
 1537SOL    HW1 4700   3.006   2.259   1.597 -0.4457 -0.1176  0.2810
 1537SOL    HW2 4701   3.121   2.163   1.574 -0.8390 -0.5402  0.0651
 1538SOL     OW 4702   3.036   0.559   0.116 -0.2028 -0.5274  0.9241
 1538SOL    HW1 4703   3.103   0.603   0.168 -0.2152 -0.9998  1.3454
 1538SOL    HW2 4704   3.015   0.622   0.047 -0.9225  0.5619  2.0756
 1539SOL     OW 4705   0.097   0.509   0.971 -0.2734 -0.2006 -0.0987
 1539SOL    HW1 4706   0.141   0.482   1.051 -2.5334  1.7032  1.9684
 1539SOL    HW2 4707   0.031   0.441   0.956 -1.2695  0.4918  0.9744
 1540SOL     OW 4708   2.601   0.238   3.211 -0.4533  0.3683 -0.5324
 1540SOL    HW1 4709   2.547   0.221   3.289  0.4385 -0.1709 -0.0109
 1540SOL    HW2 4710   2.579   0.168   3.150  0.6479 -0.6867  0.2328
 1541SOL     OW 4711   3.465   3.097   3.715 -0.3701 -0.3861  0.3395
 1541SOL    HW1 4712   3.390   3.142   3.755  0.3423 -0.4582  1.7871
 1541SOL    HW2 4713   3.425   3.022   3.669 -1.1335 -0.8495  1.7042
 1542SOL     OW 4714   0.934   0.591   3.380  0.2152 -0.1072  0.4013
 1542SOL    HW1 4715   0.880   0.522   3.419 -2.6019  0.1745 -2.5844
 1542SOL    HW2 4716   0.960   0.646   3.454 -0.2431 -2.4412  2.4527
 1543SOL     OW 4717   3.855   0.506   1.325  0.1561 -0.0166 -0.5535
 1543SOL    HW1 4718   3.944   0.469   1.333 -0.5024 -1.5012  0.3254
 1543SOL    HW2 4719   3.834   0.537   1.413 -0.2805  0.1319 -0.7119
 1544SOL     OW 4720   2.758   2.261   2.327  0.6588  0.5530  0.4096
 1544SOL    HW1 4721   2.749   2.335   2.386  1.1092  1.7394 -0.9513
 1544SOL    HW2 4722   2.852   2.242   2.327  0.3351 -1.6087  2.5386
 1545SOL     OW 4723   1.151   1.593   2.588  0.1757 -0.2790 -0.3480
 1545SOL    HW1 4724   1.192   1.599   2.502  0.5822  0.5498 -0.0998
 1545SOL    HW2 4725   1.118   1.681   2.606 -2.0086 -0.9603 -0.6665
 1546SOL     OW 4726   3.190   2.824   2.585  0.2163  1.0055  0.2358
 1546SOL    HW1 4727   3.186   2.751   2.523  0.7200  1.9740 -0.9703
 1546SOL    HW2 4728   3.105   2.868   2.577 -0.9688 -0.6387  2.5469
 1547SOL     OW 4729   2.586   1.004   0.945  0.9164  0.5470 -0.3338
 1547SOL    HW1 4730   2.674   0.970   0.926  0.9311  1.6280 -2.5548
 1547SOL    HW2 4731   2.530   0.962   0.880 -0.1770  0.1352  0.8466
 1548SOL     OW 4732   0.991   2.199   0.089  0.0297 -0.9852 -0.4022
 1548SOL    HW1 4733   0.911   2.252   0.090 -0.6599 -1.9752  1.0224
 1548SOL    HW2 4734   0.963   2.117   0.047 -0.0913 -1.8363  1.2621
 1549SOL     OW 4735   3.661   3.337   2.367  0.1078 -0.3166  0.5840
 1549SOL    HW1 4736   3.583   3.298   2.326 -0.0643 -0.8200  1.3723
 1549SOL    HW2 4737   3.729   3.272   2.354  0.6269  0.4440 -0.7789
 1550SOL     OW 4738   1.561   2.069   2.058 -0.3889 -0.1330 -0.3093
 1550SOL    HW1 4739   1.569   2.113   2.142 -0.1240 -1.9578  0.6692
 1550SOL    HW2 4740   1.650   2.039   2.038 -0.2834  0.9719 -1.6756
 1551SOL     OW 4741   3.411   2.259   3.010 -0.6473  0.8858  0.2724
 1551SOL    HW1 4742   3.421   2.185   3.070 -3.1377 -1.4867 -1.9227
 1551SOL    HW2 4743   3.321   2.289   3.024 -0.7291  1.3558 -1.0859
 1552SOL     OW 4744   2.952   1.617   3.209  0.1246 -0.0567 -0.3172
 1552SOL    HW1 4745   3.038   1.607   3.167  0.7569 -0.8952  1.0757
 1552SOL    HW2 4746   2.950   1.708   3.238  1.3187 -0.4250  1.1147
 1553SOL     OW 4747   1.852   3.015   1.770  0.4789 -1.0390 -0.1190
 1553SOL    HW1 4748   1.865   2.981   1.682 -0.3727 -3.3801  0.5763
 1553SOL    HW2 4749   1.876   2.942   1.828  0.7015  0.3182  1.5882
 1554SOL     OW 4750   2.871   3.653   2.405 -0.0929  0.2811  0.4398
 1554SOL    HW1 4751   2.858   3.735   2.453 -0.1659  1.4416 -1.4578
 1554SOL    HW2 4752   2.826   3.666   2.322  0.2155 -1.5599 -0.0656
 1555SOL     OW 4753   0.188   0.463   2.634 -0.3442  0.1003  0.0723
 1555SOL    HW1 4754   0.201   0.394   2.570 -0.3388  1.2046 -1.1730
 1555SOL    HW2 4755   0.202   0.421   2.718  0.2520 -1.2609 -0.6718
 1556SOL     OW 4756   3.656   3.561   3.190 -0.4150 -0.5345  0.2313
 1556SOL    HW1 4757   3.647   3.606   3.274  0.5048 -2.1063  1.2304
 1556SOL    HW2 4758   3.738   3.593   3.154 -1.5936  1.3589 -0.8938
 1557SOL     OW 4759   3.222   3.101   1.973 -0.3928  0.4080 -0.1816
 1557SOL    HW1 4760   3.248   3.155   1.898 -0.5027  3.4869  1.8219
 1557SOL    HW2 4761   3.301   3.096   2.026 -0.7416 -0.4045  0.2728
 1558SOL     OW 4762   1.727   0.966   1.386 -0.3906 -0.1906  0.0577
 1558SOL    HW1 4763   1.753   0.903   1.453  1.6513 -0.7139 -1.1257
 1558SOL    HW2 4764   1.714   0.913   1.307 -1.5720  0.5432 -0.2674
 1559SOL     OW 4765   3.787   2.647   0.234 -0.4103  0.0522 -0.1787
 1559SOL    HW1 4766   3.829   2.627   0.151  0.2434  1.7537 -0.2968
 1559SOL    HW2 4767   3.774   2.742   0.233  2.8594  0.7831  3.0570
 1560SOL     OW 4768   0.992   1.174   0.183 -0.7992 -0.3637  0.0381
 1560SOL    HW1 4769   1.037   1.119   0.246  0.4479  0.3002 -0.2407
 1560SOL    HW2 4770   1.028   1.147   0.098  0.0051  0.9993 -0.0816
 1561SOL     OW 4771   2.660   1.302   0.022 -0.0873 -0.1290  0.1348
 1561SOL    HW1 4772   2.719   1.378   0.028 -0.2977  0.0797 -0.3465
 1561SOL    HW2 4773   2.577   1.334   0.059 -0.1434 -0.1548  0.0324
 1562SOL     OW 4774   0.582   0.708   3.452 -0.1619 -0.2768  0.1846
 1562SOL    HW1 4775   0.598   0.618   3.480  1.2907 -0.3217 -0.6786
 1562SOL    HW2 4776   0.632   0.762   3.514  2.0062 -0.3106 -1.4180
 1563SOL     OW 4777   1.609   3.095   1.566 -0.0632  0.5056  0.0611
 1563SOL    HW1 4778   1.630   3.002   1.579 -0.2294  0.7773  2.6748
 1563SOL    HW2 4779   1.519   3.104   1.594 -0.5786  1.2259 -1.6813
 1564SOL     OW 4780   2.838   1.311   1.948 -1.0360  0.4931 -0.4089
 1564SOL    HW1 4781   2.869   1.290   1.860 -2.7790  0.2378 -0.9954
 1564SOL    HW2 4782   2.777   1.241   1.969 -0.9061  0.7417  0.8817
 1565SOL     OW 4783   2.058   2.793   2.258  0.3844 -0.1379 -0.0514
 1565SOL    HW1 4784   2.127   2.856   2.279  1.6967 -1.4381 -0.3479
 1565SOL    HW2 4785   2.024   2.765   2.342 -0.9739  1.6970  0.0956
 1566SOL     OW 4786   1.240   1.289   2.385  0.3511 -0.2596  0.3563
 1566SOL    HW1 4787   1.305   1.319   2.449 -0.5065  1.3160  0.5449
 1566SOL    HW2 4788   1.278   1.313   2.300  0.3619 -0.0408  0.4215
 1567SOL     OW 4789   1.286   1.981   1.209  0.2045  0.3129  0.3540
 1567SOL    HW1 4790   1.196   2.003   1.231  0.2842 -0.2384  1.3055
 1567SOL    HW2 4791   1.328   1.963   1.294  1.3671  1.1384 -0.0249
 1568SOL     OW 4792   2.489   0.319   1.829 -0.2529 -0.1457  0.3538
 1568SOL    HW1 4793   2.406   0.276   1.848 -1.2596  1.5468 -0.0626
 1568SOL    HW2 4794   2.468   0.412   1.825  1.5656  0.2804 -0.2986
 1569SOL     OW 4795   1.314   1.244   0.430  0.7403  0.0417  0.2921
 1569SOL    HW1 4796   1.357   1.327   0.410  1.5769 -0.5550 -0.5036
 1569SOL    HW2 4797   1.355   1.181   0.371 -2.8538 -0.1916 -2.2544
 1570SOL     OW 4798   1.067   1.956   3.697  0.0790 -0.6533 -0.3762
 1570SOL    HW1 4799   0.971   1.949   3.702  0.0806 -0.1570  0.6027
 1570SOL    HW2 4800   1.097   1.932   3.785  0.7304  0.8902 -0.1547
 1571SOL     OW 4801   3.647   3.531   2.805  0.7469 -0.4662  0.1913
 1571SOL    HW1 4802   3.661   3.462   2.871 -0.8133  1.7250  3.0884
 1571SOL    HW2 4803   3.695   3.606   2.839 -1.0831  1.1035 -0.4742
 1572SOL     OW 4804   3.863   3.042   1.295 -0.3187 -0.0551 -0.0966
 1572SOL    HW1 4805   3.853   2.992   1.214  3.1005 -1.1241 -0.0052
 1572SOL    HW2 4806   3.893   2.978   1.359 -0.9212  1.1758  1.4795
 1573SOL     OW 4807   3.502   2.529   0.021 -0.5425 -0.1251  0.3944
 1573SOL    HW1 4808   3.518   2.435   0.029 -0.1852 -0.1484 -0.5207
 1573SOL    HW2 4809   3.455   2.539  -0.062  1.0840  0.6767 -0.4833
 1574SOL     OW 4810   1.988   2.946   0.314  0.0057  0.4212  0.4531
 1574SOL    HW1 4811   2.071   2.945   0.362 -0.1609  1.3127  0.7764
 1574SOL    HW2 4812   2.004   2.889   0.238  0.8674  0.4773  0.5801
 1575SOL     OW 4813   0.950   3.629   2.167 -0.4108  0.4953  0.4748
 1575SOL    HW1 4814   1.022   3.585   2.121  0.2261  1.7379  0.2514
 1575SOL    HW2 4815   0.894   3.557   2.196  1.5771 -0.6258  1.7859
 1576SOL     OW 4816   1.861   2.201   0.147 -0.1028 -0.2397 -0.2221
 1576SOL    HW1 4817   1.801   2.206   0.072 -0.9283  1.4416  0.4973
 1576SOL    HW2 4818   1.944   2.233   0.113  0.3537 -2.2382 -1.1316
 1577SOL     OW 4819   1.395   1.138   3.533 -0.1761  0.5566  0.1839
 1577SOL    HW1 4820   1.374   1.046   3.514 -0.9264  0.5699  0.8880
 1577SOL    HW2 4821   1.381   1.183   3.450  1.6308 -0.1690 -0.5871
 1578SOL     OW 4822   3.866   2.821   2.161  0.3502  0.4548  0.1250
 1578SOL    HW1 4823   3.954   2.827   2.123 -1.1577  1.3683 -3.7259
 1578SOL    HW2 4824   3.825   2.748   2.114 -1.3313  0.8744  0.8646
 1579SOL     OW 4825   2.500   2.603   1.940 -0.5206  0.0322  0.2120
 1579SOL    HW1 4826   2.489   2.521   1.988  1.8510 -0.5691 -0.1341
 1579SOL    HW2 4827   2.544   2.577   1.859  1.5059  1.7344  0.6660
 1580SOL     OW 4828   3.274   2.582   2.813 -0.3538 -0.3723  0.2288
 1580SOL    HW1 4829   3.331   2.513   2.848  0.6413  0.9946  1.3923
 1580SOL    HW2 4830   3.290   2.581   2.719  1.3297 -0.2872  0.4905
 1581SOL     OW 4831   2.667   1.282   1.558 -0.1997 -0.2212  0.4106
 1581SOL    HW1 4832   2.602   1.287   1.487 -0.6290 -1.4694  0.6870
 1581SOL    HW2 4833   2.615   1.259   1.635  0.2054  1.4961  1.2503
 1582SOL     OW 4834   3.402   1.833   0.035 -0.1864  0.2600  0.1075
 1582SOL    HW1 4835   3.449   1.838   0.119 -0.6538  2.4911  0.2975
 1582SOL    HW2 4836   3.471   1.822  -0.030  0.8590  4.0278  0.3229
 1583SOL     OW 4837   3.366   0.257   1.009  1.0600 -0.0654  0.2105
 1583SOL    HW1 4838   3.299   0.310   0.965 -0.4397 -0.4558  1.9251
 1583SOL    HW2 4839   3.322   0.220   1.085  2.9190 -1.3277  0.7515
 1584SOL     OW 4840   1.272   1.584   2.014  0.5877  0.4619  0.5411
 1584SOL    HW1 4841   1.360   1.620   2.002  1.4205 -1.9712 -1.3927
 1584SOL    HW2 4842   1.220   1.622   1.943  0.4314  0.8136  0.8400
 1585SOL     OW 4843   3.504   0.910   2.997  0.3033 -0.6141 -0.3215
 1585SOL    HW1 4844   3.599   0.904   2.989  0.1486 -2.6680 -1.1693
 1585SOL    HW2 4845   3.488   0.909   3.091  1.1062 -0.0327 -0.1658
 1586SOL     OW 4846   0.359   1.883   2.664 -0.2165 -0.1482  0.2799
 1586SOL    HW1 4847   0.282   1.939   2.668  0.2688  0.9103 -2.8099
 1586SOL    HW2 4848   0.329   1.803   2.621  0.1540 -0.1708  0.0509
 1587SOL     OW 4849   1.862   0.332   1.629  0.3233 -0.0662  0.7106
 1587SOL    HW1 4850   1.862   0.256   1.687 -0.5725 -0.2425  0.5059
 1587SOL    HW2 4851   1.771   0.339   1.600  0.4523  0.9340  0.5225
 1588SOL     OW 4852   3.435   2.480   3.630  0.3342 -0.5908  0.3946
 1588SOL    HW1 4853   3.519   2.511   3.597  0.1815  0.3823  0.9019
 1588SOL    HW2 4854   3.375   2.492   3.556  0.3761 -0.1171  0.4376
 1589SOL     OW 4855   0.160   1.080   2.641 -0.1158  0.1033 -0.2823
 1589SOL    HW1 4856   0.241   1.069   2.692  0.3373 -2.8404 -1.4056
 1589SOL    HW2 4857   0.190   1.107   2.555 -0.4412  0.2708 -0.3412
 1590SOL     OW 4858   3.119   1.669   1.269 -0.0155  0.4212  0.0658
 1590SOL    HW1 4859   3.196   1.706   1.225 -0.0837  0.8723  0.3124
 1590SOL    HW2 4860   3.155   1.621   1.343  0.0996 -0.3404 -0.4676
 1591SOL     OW 4861   0.354   2.945   1.526 -0.0825 -0.3314  0.3593
 1591SOL    HW1 4862   0.439   2.905   1.506  0.9526  0.9140  2.0397
 1591SOL    HW2 4863   0.340   3.008   1.456  0.1579 -0.8419 -0.1603
 1592SOL     OW 4864   1.763   0.662   1.783 -0.3346 -0.5193  1.0006
 1592SOL    HW1 4865   1.811   0.728   1.734 -1.3552  0.3063  1.0785
 1592SOL    HW2 4866   1.716   0.612   1.717  0.8998 -1.6033  0.8862
 1593SOL     OW 4867   2.771   3.262   1.464  0.4416  1.0655  0.0413
 1593SOL    HW1 4868   2.698   3.313   1.429 -0.5813 -0.1605  0.3117
 1593SOL    HW2 4869   2.824   3.241   1.387 -1.7944 -1.6249 -0.9320
 1594SOL     OW 4870   0.277   0.745   3.730 -0.1917  0.0055 -0.2360
 1594SOL    HW1 4871   0.200   0.774   3.779  0.0541 -1.7859  1.3509
 1594SOL    HW2 4872   0.349   0.752   3.793  0.9807  1.5413 -1.6543
 1595SOL     OW 4873   3.339   2.498   1.716 -0.3232 -0.8341  0.3716
 1595SOL    HW1 4874   3.311   2.417   1.675 -0.2868 -0.9320  0.5403
 1595SOL    HW2 4875   3.434   2.500   1.703 -0.4882 -0.1201 -0.8948
 1596SOL     OW 4876   1.959   1.993   3.245  0.3921 -0.1419 -0.0749
 1596SOL    HW1 4877   1.883   2.015   3.298  0.9516  2.3599 -0.2075
 1596SOL    HW2 4878   1.927   1.990   3.155  0.4586  1.0636 -0.1470
 1597SOL     OW 4879   3.538   1.743   0.698  0.6512  0.3283  0.0040
 1597SOL    HW1 4880   3.461   1.790   0.665 -1.0591 -1.4382  1.2731
 1597SOL    HW2 4881   3.567   1.794   0.773 -0.1442  0.3272  0.3300
 1598SOL     OW 4882   0.230   1.696   0.391 -0.5472 -0.0345  0.3518
 1598SOL    HW1 4883   0.263   1.649   0.314  0.6740  0.8003  0.3495
 1598SOL    HW2 4884   0.188   1.774   0.355  1.4281  1.1813  0.5837
 1599SOL     OW 4885   0.532   1.366   1.382 -0.9556  0.0674 -0.1349
 1599SOL    HW1 4886   0.465   1.365   1.314 -0.0099 -3.5916 -1.2838
 1599SOL    HW2 4887   0.611   1.397   1.337 -0.7983 -0.3919 -0.1868
 1600SOL     OW 4888   1.013   1.351   1.324  0.5230  0.8335 -0.1899
 1600SOL    HW1 4889   0.987   1.339   1.416  0.5745  0.8046 -0.1787
 1600SOL    HW2 4890   0.949   1.412   1.289  0.2637  0.5328 -0.2420
 1601SOL     OW 4891   0.334   0.298   2.781  0.6570  0.5657  0.1088
 1601SOL    HW1 4892   0.355   0.213   2.821 -0.5138 -0.0599 -0.5544
 1601SOL    HW2 4893   0.381   0.298   2.698 -0.1658  0.1161 -0.3626
 1602SOL     OW 4894   0.560   0.634   1.626 -0.1791  0.1083 -0.2352
 1602SOL    HW1 4895   0.628   0.643   1.692  0.3153  1.0725 -0.8553
 1602SOL    HW2 4896   0.478   0.632   1.676  0.1930  0.6890  0.4192
 1603SOL     OW 4897   0.883   2.634   3.005  0.4550 -0.2768  0.6313
 1603SOL    HW1 4898   0.804   2.581   2.999  0.4391 -0.4192  1.8619
 1603SOL    HW2 4899   0.945   2.581   3.055  1.5665 -0.4210 -0.8180
 1604SOL     OW 4900   1.974   2.847   2.993 -0.3141 -0.4728  0.1457
 1604SOL    HW1 4901   1.953   2.926   3.043  3.1645  0.2973  0.6605
 1604SOL    HW2 4902   1.983   2.878   2.903  2.3963  0.1414  0.5433
 1605SOL     OW 4903   2.582   3.112   0.596  0.0681 -0.5455  0.5416
 1605SOL    HW1 4904   2.563   3.064   0.515  0.4326  0.1452  0.0295
 1605SOL    HW2 4905   2.677   3.108   0.604  0.5031  2.5776 -1.1794
 1606SOL     OW 4906   1.774   1.265   0.617 -0.0125  0.0220  0.9276
 1606SOL    HW1 4907   1.788   1.294   0.707  1.1235  0.3610  0.6550
 1606SOL    HW2 4908   1.834   1.317   0.565  0.3979 -1.1906  0.1396
 1607SOL     OW 4909   0.529   3.542   0.729  0.5474  0.5228 -0.2563
 1607SOL    HW1 4910   0.604   3.594   0.760  0.4672 -0.8119  2.4839
 1607SOL    HW2 4911   0.453   3.595   0.751  0.5508  0.1890  0.5828
 1608SOL     OW 4912   2.868   0.107   1.257 -0.5737 -0.3460 -0.2228
 1608SOL    HW1 4913   2.805   0.129   1.325 -1.2620 -1.2748 -0.5453
 1608SOL    HW2 4914   2.950   0.149   1.285 -0.3110 -2.2754  2.1753
 1609SOL     OW 4915   1.180   1.948   0.924 -0.1441  0.0866 -0.0276
 1609SOL    HW1 4916   1.144   2.005   0.856  1.8175  0.0799 -1.1529
 1609SOL    HW2 4917   1.212   2.009   0.991  1.5916  0.3795 -1.0483
 1610SOL     OW 4918   0.134   1.944   2.296  0.0903  0.1517  0.7033
 1610SOL    HW1 4919   0.082   2.012   2.339 -0.7279 -0.0371  0.0285
 1610SOL    HW2 4920   0.077   1.867   2.296  0.6449 -0.2658  0.5875
 1611SOL     OW 4921   2.040   3.291   3.416 -0.0584 -0.5856 -0.5149
 1611SOL    HW1 4922   2.102   3.289   3.343  0.0750  0.7225 -0.4485
 1611SOL    HW2 4923   2.027   3.384   3.435 -2.6021 -0.7625 -0.9887
 1612SOL     OW 4924   2.592   0.983   1.441  0.6597  0.1239 -0.4827
 1612SOL    HW1 4925   2.643   0.978   1.522 -1.2591  0.8724  0.8557
 1612SOL    HW2 4926   2.655   1.012   1.375  2.6381 -1.9527  0.3604
 1613SOL     OW 4927   3.132   1.490   1.721 -0.3457  0.0363  0.8077
 1613SOL    HW1 4928   3.097   1.567   1.678 -1.8242 -0.6653  0.7022
 1613SOL    HW2 4929   3.055   1.444   1.754  0.5460 -1.1052  1.3627
 1614SOL     OW 4930   2.007   3.724   0.880  0.1410 -0.4405 -0.6651
 1614SOL    HW1 4931   1.925   3.749   0.924  0.0753  0.4690 -1.2834
 1614SOL    HW2 4932   2.011   3.629   0.889 -0.7387 -0.4428 -0.2004
 1615SOL     OW 4933   1.322   3.398   3.670  0.1612 -0.1442 -0.5790
 1615SOL    HW1 4934   1.293   3.337   3.601 -2.1963 -1.0250  1.0855
 1615SOL    HW2 4935   1.411   3.369   3.690 -0.3720 -2.1945 -0.8445
 1616SOL     OW 4936   1.294   0.097   0.761 -0.1982  0.2611  0.3022
 1616SOL    HW1 4937   1.332   0.024   0.713  0.2909  1.2721 -0.8839
 1616SOL    HW2 4938   1.336   0.094   0.847 -0.4787 -1.0662  0.4163
 1617SOL     OW 4939   1.316   0.898   3.396 -0.5715  0.2872 -0.5313
 1617SOL    HW1 4940   1.388   0.891   3.333  0.0683  1.9052 -0.0275
 1617SOL    HW2 4941   1.245   0.939   3.347 -1.2513 -1.4600 -1.0750
 1618SOL     OW 4942   1.025   1.480   0.272  0.6339 -0.3932 -0.3419
 1618SOL    HW1 4943   1.110   1.522   0.265  1.1433 -1.4755 -0.8858
 1618SOL    HW2 4944   1.042   1.387   0.256 -0.4747 -0.7994  0.6347
 1619SOL     OW 4945   0.312   1.617   1.501  0.0688 -0.3786  0.0513
 1619SOL    HW1 4946   0.365   1.639   1.578 -0.5698 -0.9914  0.6866
 1619SOL    HW2 4947   0.370   1.632   1.427  0.8525 -0.2059  0.6792
 1620SOL     OW 4948   3.353   1.374   2.398  0.3260 -0.2597 -0.3977
 1620SOL    HW1 4949   3.323   1.394   2.487  1.4473 -1.2639  0.2351
 1620SOL    HW2 4950   3.421   1.438   2.380  0.5547 -0.4668 -0.2727
 1621SOL     OW 4951   1.204   2.116   2.597  0.1545 -0.7128 -0.1316
 1621SOL    HW1 4952   1.296   2.103   2.577 -0.3161 -0.3240 -3.0376
 1621SOL    HW2 4953   1.170   2.167   2.523 -2.2614 -0.2577  1.1651
 1622SOL     OW 4954   1.020   0.189   2.725  0.3307 -0.3449  0.2870
 1622SOL    HW1 4955   1.101   0.138   2.725  0.5765  0.0261 -0.2930
 1622SOL    HW2 4956   1.040   0.266   2.777  0.6938  0.2474 -0.7015
 1623SOL     OW 4957   1.750   0.525   1.114  0.1134 -0.0627 -0.2537
 1623SOL    HW1 4958   1.842   0.548   1.121  0.2305 -1.0469  2.0126
 1623SOL    HW2 4959   1.746   0.431   1.127 -1.2392 -0.0069 -0.0310
 1624SOL     OW 4960   2.424   3.137   0.832 -0.5132  0.7558  0.3037
 1624SOL    HW1 4961   2.358   3.070   0.850 -0.9756  1.1011 -0.0893
 1624SOL    HW2 4962   2.467   3.108   0.752  1.2813 -0.5767  1.6379
 1625SOL     OW 4963   2.921   0.681   2.576  0.0354  0.6452 -0.2418
 1625SOL    HW1 4964   3.013   0.658   2.588 -0.3216 -0.2526  1.1888
 1625SOL    HW2 4965   2.921   0.763   2.527  1.5693  0.3384 -0.7819
 1626SOL     OW 4966   2.860   3.829   2.934  0.3904  0.3381  0.1606
 1626SOL    HW1 4967   2.791   3.769   2.905  1.6317 -1.1481  0.1053
 1626SOL    HW2 4968   2.857   3.825   3.029 -0.2975  1.1395  0.1809
 1627SOL     OW 4969   2.232   3.639   3.428  0.1572  0.2569 -0.1689
 1627SOL    HW1 4970   2.222   3.592   3.345  0.1480 -0.1953  0.0886
 1627SOL    HW2 4971   2.318   3.681   3.421  1.5244 -2.1647  0.7598
 1628SOL     OW 4972   3.091   3.769   0.032 -0.4070 -0.0762 -0.0231
 1628SOL    HW1 4973   3.029   3.837   0.005  0.9105  1.2331  0.1113
 1628SOL    HW2 4974   3.145   3.753  -0.046  0.2893  0.1925  0.3888
 1629SOL     OW 4975   2.806   1.597   3.632  0.0289 -0.0762  0.0029
 1629SOL    HW1 4976   2.731   1.543   3.607  0.8085 -0.9615 -0.4483
 1629SOL    HW2 4977   2.871   1.582   3.564  0.3694  1.2428 -0.0069
 1630SOL     OW 4978   3.745   3.064   3.275  0.4315  0.2307 -0.3812
 1630SOL    HW1 4979   3.783   3.074   3.362  0.6952 -0.5146 -0.4020
 1630SOL    HW2 4980   3.716   3.152   3.251  2.3326  0.8894 -0.4404
 1631SOL     OW 4981   1.490   0.030   1.794  0.3219 -0.2410  0.1734
 1631SOL    HW1 4982   1.465   0.122   1.781  0.5813  0.1913  2.2548
 1631SOL    HW2 4983   1.408  -0.013   1.820  0.4772 -0.2603  0.6414
 1632SOL     OW 4984   2.546   1.810   3.325  0.7684  0.2564 -0.2733
 1632SOL    HW1 4985   2.487   1.855   3.386  0.4426  1.3043 -1.3193
 1632SOL    HW2 4986   2.534   1.856   3.242  1.4818 -0.8951 -1.0428
 1633SOL     OW 4987   3.618   3.566   1.725  0.0066  0.6136  0.9880
 1633SOL    HW1 4988   3.583   3.626   1.659  0.7110  1.1143  1.0621
 1633SOL    HW2 4989   3.672   3.621   1.782  1.0805 -0.1769  0.7596
 1634SOL     OW 4990   0.089   1.514   3.396 -0.6293  0.2903  0.0889
 1634SOL    HW1 4991   0.132   1.522   3.310 -0.9831 -0.0211 -0.1192
 1634SOL    HW2 4992   0.049   1.427   3.394 -1.1023  0.5042  0.3609
 1635SOL     OW 4993   1.676   1.586   2.273  0.4825 -0.0374 -0.3380
 1635SOL    HW1 4994   1.762   1.566   2.308 -0.2929  0.0359  1.7701
 1635SOL    HW2 4995   1.636   1.501   2.257  0.0356 -0.1465  1.1810
 1636SOL     OW 4996   2.497   3.405   0.725  0.1754  0.5397 -0.0516
 1636SOL    HW1 4997   2.423   3.435   0.671 -0.3497 -1.4194 -0.5069
 1636SOL    HW2 4998   2.534   3.332   0.676  2.7827  1.7603 -0.0745
 1637SOL     OW 4999   2.931   0.947   3.611  0.9097  0.3062  0.1922
 1637SOL    HW1 5000   2.853   0.894   3.626  0.0394  1.2920 -0.7040
 1637SOL    HW2 5001   2.942   0.997   3.693 -0.6527  1.6933 -0.3942
 1638SOL     OW 5002   3.233   3.416   1.273  0.8670 -0.2296  0.0285
 1638SOL    HW1 5003   3.243   3.459   1.358 -1.5013 -0.0264  0.2716
 1638SOL    HW2 5004   3.156   3.359   1.284 -1.6352  2.2332 -2.8120
 1639SOL     OW 5005   1.242   0.059   0.365  0.4391  0.4991 -0.2762
 1639SOL    HW1 5006   1.221   0.115   0.439  0.5187 -1.2690  1.1645
 1639SOL    HW2 5007   1.298   0.112   0.309  1.2785  1.5346  1.4748
 1640SOL     OW 5008   3.695   2.605   1.184  0.2752 -0.0780  0.5597
 1640SOL    HW1 5009   3.691   2.664   1.109  0.2543 -1.3918 -0.5094
 1640SOL    HW2 5010   3.778   2.624   1.226  0.5245  0.3125 -0.1088
 1641SOL     OW 5011   0.586   3.464   0.121  0.4995 -0.0293 -1.0894
 1641SOL    HW1 5012   0.617   3.452   0.211 -0.8026  2.1103 -0.2642
 1641SOL    HW2 5013   0.610   3.554   0.099 -1.2893  0.2848 -1.9701
 1642SOL     OW 5014   2.192   2.531   2.073 -0.2751 -0.4594 -0.0879
 1642SOL    HW1 5015   2.152   2.514   2.158 -1.6477  0.6885 -0.4722
 1642SOL    HW2 5016   2.155   2.465   2.015 -1.5212  0.4671 -0.3932
 1643SOL     OW 5017   0.248   3.628   0.097 -0.3375  0.0305 -0.0638
 1643SOL    HW1 5018   0.152   3.622   0.093 -0.5230  1.7081  0.9788
 1643SOL    HW2 5019   0.265   3.696   0.162  1.5644  0.3615 -0.8479
 1644SOL     OW 5020   1.113   0.158   1.095 -0.5053 -0.0431 -0.1036
 1644SOL    HW1 5021   1.177   0.096   1.128  0.9339  1.0062 -0.8304
 1644SOL    HW2 5022   1.124   0.236   1.150  0.5237  0.9879 -1.6962
 1645SOL     OW 5023   3.376   0.924   0.780  0.6326 -0.0411  0.1241
 1645SOL    HW1 5024   3.401   0.950   0.869 -1.8004  2.4240  0.2273
 1645SOL    HW2 5025   3.411   0.994   0.724 -0.6732  0.2098 -0.4144
 1646SOL     OW 5026   2.108   2.469   2.846  0.2716 -1.0291  0.4247
 1646SOL    HW1 5027   2.133   2.459   2.754  0.5975  0.0523  0.3814
 1646SOL    HW2 5028   2.191   2.468   2.894  0.3572  1.2315  0.4093
 1647SOL     OW 5029   2.330   2.871   3.446  0.7083  0.2185 -0.0979
 1647SOL    HW1 5030   2.372   2.889   3.362 -2.3309  0.1851 -1.7639
 1647SOL    HW2 5031   2.282   2.952   3.466 -0.6932 -0.6754  0.2380
 1648SOL     OW 5032   0.019   2.256   3.481 -0.4098  0.0025 -0.1233
 1648SOL    HW1 5033   0.027   2.192   3.411  2.2011  0.5399 -0.4185
 1648SOL    HW2 5034   0.090   2.319   3.465 -0.5540  0.8894  2.2286
 1649SOL     OW 5035   3.215   0.945   2.550  0.2416  0.1362 -0.8476
 1649SOL    HW1 5036   3.259   0.917   2.470 -2.4754 -0.0772 -2.4130
 1649SOL    HW2 5037   3.209   0.865   2.603 -0.2669 -0.3812 -1.6555
 1650SOL     OW 5038   0.871   1.501   2.627 -0.7914 -0.9822  0.4109
 1650SOL    HW1 5039   0.849   1.549   2.548  0.0366  1.1917  1.4208
 1650SOL    HW2 5040   0.955   1.460   2.608  0.2362  0.9143  0.6633
 1651SOL     OW 5041   1.763   2.234   0.762  0.2703 -0.0507  0.0445
 1651SOL    HW1 5042   1.743   2.140   0.761  3.3539 -0.8354 -1.4274
 1651SOL    HW2 5043   1.684   2.275   0.726 -0.6395 -2.2154 -0.6467
 1652SOL     OW 5044   1.554   1.164   0.036  0.6290 -0.5920  0.4137
 1652SOL    HW1 5045   1.489   1.185  -0.032  2.4589  1.9339 -0.7325
 1652SOL    HW2 5046   1.527   1.218   0.110  0.4268 -0.9081  0.5711
 1653SOL     OW 5047   1.331   3.861   2.046  0.0639  0.3687  0.5284
 1653SOL    HW1 5048   1.274   3.812   2.105  1.4736 -1.6415  0.3698
 1653SOL    HW2 5049   1.326   3.813   1.963  1.4382  0.5309  0.3241
 1654SOL     OW 5050   1.470   3.593   3.492  0.0324 -0.4617 -0.4970
 1654SOL    HW1 5051   1.537   3.554   3.548  1.2038  0.0341 -1.5022
 1654SOL    HW2 5052   1.391   3.542   3.510  0.3727 -0.3695  1.5307
 1655SOL     OW 5053   3.042   2.744   1.340  0.7308  0.2516 -0.4319
 1655SOL    HW1 5054   3.012   2.780   1.256  1.6404 -1.1417 -1.4103
 1655SOL    HW2 5055   3.019   2.651   1.335  0.4718  0.2208  1.0360
 1656SOL     OW 5056   1.914   1.020   3.523 -0.6928 -0.2749 -0.4564
 1656SOL    HW1 5057   1.825   0.995   3.498 -0.7590 -2.6767  1.7689
 1656SOL    HW2 5058   1.902   1.086   3.591 -0.8534 -1.2568  0.4943
 1657SOL     OW 5059   0.506   1.821   1.351  0.2120 -0.0021  0.2031
 1657SOL    HW1 5060   0.543   1.860   1.272  0.5149 -0.6244  0.0291
 1657SOL    HW2 5061   0.424   1.869   1.366  1.0498  1.3708  0.5667
 1658SOL     OW 5062   0.989   3.501   0.268  0.1531 -0.3535 -0.1105
 1658SOL    HW1 5063   0.944   3.574   0.311 -1.3191 -0.6371 -1.1305
 1658SOL    HW2 5064   1.033   3.541   0.193 -0.1018 -0.4191 -0.2926
 1659SOL     OW 5065   0.605   2.518   2.687  0.1323 -0.2743 -0.3928
 1659SOL    HW1 5066   0.653   2.492   2.766  0.2041  0.0224 -0.3382
 1659SOL    HW2 5067   0.646   2.468   2.617 -1.5613 -2.5192  0.0860
 1660SOL     OW 5068   3.455   3.170   2.815 -0.1495 -0.2702 -1.0345
 1660SOL    HW1 5069   3.425   3.088   2.775  0.7382 -1.5551  0.7978
 1660SOL    HW2 5070   3.538   3.188   2.771  0.6049 -1.4353 -0.1550
 1661SOL     OW 5071   1.999   0.767   3.468 -0.1377 -0.9939 -0.4842
 1661SOL    HW1 5072   1.973   0.856   3.492 -0.5298 -1.4684  0.9418
 1661SOL    HW2 5073   1.987   0.763   3.373 -0.0705  0.4805 -0.5656
 1662SOL     OW 5074   1.277   1.282   1.374  0.6845 -0.4253 -0.1697
 1662SOL    HW1 5075   1.191   1.295   1.334  0.6191  0.3204  0.2127
 1662SOL    HW2 5076   1.259   1.254   1.463  0.8114  1.5207  0.5105
 1663SOL     OW 5077   3.272   2.996   3.124 -0.3900 -0.3617  0.3847
 1663SOL    HW1 5078   3.280   2.900   3.122 -1.1330 -0.4223  0.0129
 1663SOL    HW2 5079   3.259   3.016   3.217  1.1769 -0.4861  0.6545
 1664SOL     OW 5080   0.114   1.703   3.674 -0.2470 -0.1146  0.0620
 1664SOL    HW1 5081   0.204   1.717   3.644 -0.6980  1.3553 -0.7058
 1664SOL    HW2 5082   0.097   1.610   3.657  0.9062 -0.2548 -0.3844
 1665SOL     OW 5083   1.497   1.417   1.499  0.0886  0.3966  0.4705
 1665SOL    HW1 5084   1.555   1.346   1.526  1.4359  0.7706 -1.2476
 1665SOL    HW2 5085   1.426   1.374   1.451  2.1277  0.2687 -2.6399
 1666SOL     OW 5086   0.588   2.512   3.750  0.2319  0.6022  0.2530
 1666SOL    HW1 5087   0.648   2.516   3.676 -2.0884  1.4352 -1.7265
 1666SOL    HW2 5088   0.569   2.419   3.760  0.8595  0.4488  0.0494
 1667SOL     OW 5089   2.928   0.959   0.387 -0.3283  0.4054 -0.0766
 1667SOL    HW1 5090   3.002   1.003   0.345 -0.3194  0.7863  0.3263
 1667SOL    HW2 5091   2.851   1.003   0.351 -0.3982 -0.5270 -1.0989
 1668SOL     OW 5092   3.395   1.020   1.046  0.0101 -0.2324  0.4156
 1668SOL    HW1 5093   3.464   1.053   1.104 -1.8846  0.8824  2.1593
 1668SOL    HW2 5094   3.340   1.096   1.028 -1.6859 -1.4018  0.4462
 1669SOL     OW 5095   2.012   2.577   3.519  0.3324  0.4848 -0.4590
 1669SOL    HW1 5096   1.928   2.542   3.549  0.0099  0.9052 -0.8539
 1669SOL    HW2 5097   2.053   2.504   3.473 -0.2503  0.5598 -1.1124
 1670SOL     OW 5098   2.347   0.222   0.066  0.6959  0.1263 -0.5289
 1670SOL    HW1 5099   2.309   0.229  -0.021 -0.0635  0.3123 -0.1887
 1670SOL    HW2 5100   2.441   0.231   0.052  0.5366  0.6992 -1.2678
 1671SOL     OW 5101   3.778   0.200   1.467 -0.9861  0.7826 -0.5290
 1671SOL    HW1 5102   3.793   0.258   1.542 -0.1417  0.4286 -0.4152
 1671SOL    HW2 5103   3.712   0.246   1.414  0.2066  2.2202 -0.8317
 1672SOL     OW 5104   0.687   0.918   1.895 -0.5218 -1.1462  0.4550
 1672SOL    HW1 5105   0.605   0.945   1.856 -0.8792 -2.0790  0.5386
 1672SOL    HW2 5106   0.673   0.827   1.921  0.4750 -1.2671  0.6256
 1673SOL     OW 5107   3.061   0.226   3.382 -0.6619  0.7418  0.0410
 1673SOL    HW1 5108   3.046   0.310   3.425  0.0598 -0.1644  2.2188
 1673SOL    HW2 5109   3.002   0.165   3.426 -1.5485  0.1587 -1.8580
 1674SOL     OW 5110   2.430   0.238   0.347  0.4777 -0.2077 -0.3135
 1674SOL    HW1 5111   2.400   0.192   0.269 -0.0997 -0.9391  0.3257
 1674SOL    HW2 5112   2.479   0.314   0.313  0.0042 -0.3603 -1.3708
 1675SOL     OW 5113   3.442   0.555   1.373  0.6707  0.0129 -0.1444
 1675SOL    HW1 5114   3.480   0.643   1.379  1.4393 -0.3563  0.8708
 1675SOL    HW2 5115   3.392   0.545   1.454 -0.8874  0.1524 -1.0639
 1676SOL     OW 5116   2.808   1.627   0.684  0.0340 -0.0212  0.3399
 1676SOL    HW1 5117   2.745   1.570   0.641  0.6678 -0.6534  0.2348
 1676SOL    HW2 5118   2.777   1.634   0.774 -0.8318  0.6311  0.0095
 1677SOL     OW 5119   2.175   3.124   1.338 -0.7613 -0.2313 -1.0490
 1677SOL    HW1 5120   2.220   3.143   1.256 -2.3815  0.4236 -1.8349
 1677SOL    HW2 5121   2.177   3.207   1.386 -0.1732 -0.5054 -0.5787
 1678SOL     OW 5122   2.347   0.680   1.203 -0.4564  0.0442 -0.2233
 1678SOL    HW1 5123   2.419   0.665   1.142 -0.4001  1.2779 -0.4783
 1678SOL    HW2 5124   2.314   0.592   1.223 -0.4875 -0.3874 -2.0443
 1679SOL     OW 5125   0.106   1.914   0.311  0.3539 -0.1694  0.0508
 1679SOL    HW1 5126   0.102   2.003   0.345  0.9604  0.3595 -1.2004
 1679SOL    HW2 5127   0.024   1.903   0.263 -1.0280 -1.3057  2.4653
 1680SOL     OW 5128   2.181   3.744   1.274  0.0569 -0.1363 -0.6292
 1680SOL    HW1 5129   2.201   3.838   1.274  0.2722 -0.1416  1.0659
 1680SOL    HW2 5130   2.102   3.737   1.222  0.0037  1.0099 -0.7429
 1681SOL     OW 5131   0.310   3.571   0.973  0.1236 -0.7535 -0.3832
 1681SOL    HW1 5132   0.298   3.590   0.880 -0.3083 -0.0339 -0.1851
 1681SOL    HW2 5133   0.403   3.586   0.989  0.0531 -0.1323 -0.5359
 1682SOL     OW 5134   0.874   0.101   0.615 -0.5294 -0.2644  0.0390
 1682SOL    HW1 5135   0.869   0.018   0.567  0.1829 -0.2708 -0.0276
 1682SOL    HW2 5136   0.841   0.080   0.703 -0.9542 -0.4654 -0.1651
 1683SOL     OW 5137   0.019   2.471   0.645 -0.5583 -0.2719 -0.0985
 1683SOL    HW1 5138   0.089   2.416   0.680 -0.5748  0.0962  0.5172
 1683SOL    HW2 5139   0.059   2.517   0.571 -0.0678  0.1574  0.4342
 1684SOL     OW 5140   1.341   1.870   3.677  0.3150 -0.2272 -0.3737
 1684SOL    HW1 5141   1.288   1.863   3.757  0.8433  0.4842  0.0482
 1684SOL    HW2 5142   1.285   1.834   3.609 -0.7716  0.5912  0.0421
 1685SOL     OW 5143   1.495   0.777   0.511  0.6955 -0.2456  0.1597
 1685SOL    HW1 5144   1.447   0.857   0.491 -0.2668 -1.3128 -2.1629
 1685SOL    HW2 5145   1.442   0.733   0.577 -0.2374 -0.2518 -0.5811
 1686SOL     OW 5146   0.162   2.874   0.423  0.4111  0.1207 -0.1086
 1686SOL    HW1 5147   0.221   2.900   0.495  0.3549 -0.3936  0.1230
 1686SOL    HW2 5148   0.171   2.945   0.359  1.1227  0.1595  0.0206
 1687SOL     OW 5149   2.657   1.020   0.279 -0.3085 -0.0754 -0.0349
 1687SOL    HW1 5150   2.614   0.948   0.325 -0.0330  0.9715  1.9851
 1687SOL    HW2 5151   2.600   1.096   0.294  1.1749  0.9064  1.0703
 1688SOL     OW 5152   1.178   3.198   1.089 -0.2093 -0.4462 -0.1032
 1688SOL    HW1 5153   1.117   3.272   1.082  0.6733  0.1578 -1.7293
 1688SOL    HW2 5154   1.254   3.224   1.039  2.5238 -0.1681  3.7640
 1689SOL     OW 5155   0.321   1.150   2.376 -0.5911  0.1262 -0.1267
 1689SOL    HW1 5156   0.323   1.055   2.373 -0.1576  0.0932  0.9195
 1689SOL    HW2 5157   0.369   1.178   2.298 -0.3830 -0.5108 -0.2270
 1690SOL     OW 5158   0.350   3.278   0.432  0.2871  0.1226 -0.2755
 1690SOL    HW1 5159   0.335   3.190   0.399 -0.6946  0.1655  0.0214
 1690SOL    HW2 5160   0.359   3.267   0.527 -0.2552  0.3796 -0.1888
 1691SOL     OW 5161   2.622   1.525   2.257  0.1776  0.3721  0.3476
 1691SOL    HW1 5162   2.665   1.441   2.269 -1.6631 -0.4078  2.0701
 1691SOL    HW2 5163   2.672   1.587   2.310 -0.0729 -0.2496  1.3228
 1692SOL     OW 5164   3.426   1.797   3.447 -0.0409  0.4596  1.0100
 1692SOL    HW1 5165   3.486   1.870   3.460  0.5381  0.5366 -1.6536
 1692SOL    HW2 5166   3.475   1.735   3.393 -1.6293 -0.4458  0.5488
 1693SOL     OW 5167   0.986   1.980   2.231  0.3599 -0.1985 -0.0982
 1693SOL    HW1 5168   1.060   2.040   2.235  1.2695 -1.3776  2.4695
 1693SOL    HW2 5169   1.015   1.909   2.175 -0.2606  1.0181 -2.0975
 1694SOL     OW 5170   2.628   2.084   2.640 -0.4492  0.1992  0.6979
 1694SOL    HW1 5171   2.538   2.056   2.629 -0.2530 -0.4672  0.7260
 1694SOL    HW2 5172   2.663   2.092   2.551 -0.1853 -0.7457  0.7061
 1695SOL     OW 5173   2.513   2.147   0.674 -0.2248 -0.4668 -0.0266
 1695SOL    HW1 5174   2.566   2.186   0.743  0.0416 -1.4298  0.3237
 1695SOL    HW2 5175   2.472   2.222   0.630 -2.3452  0.1294  2.6786
 1696SOL     OW 5176   0.276   0.858   2.402  0.2833 -1.2274  0.2006
 1696SOL    HW1 5177   0.209   0.809   2.450  0.0703 -1.1829 -0.0486
 1696SOL    HW2 5178   0.357   0.839   2.449  0.1103 -1.3456  0.4583
 1697SOL     OW 5179   0.546   3.570   1.899  0.7350  0.7269 -0.0695
 1697SOL    HW1 5180   0.597   3.490   1.916  0.8923  0.9230  0.4025
 1697SOL    HW2 5181   0.483   3.545   1.832 -0.3455 -0.2719  1.2542
 1698SOL     OW 5182   0.888   3.430   0.589 -0.6304 -0.2294  0.4811
 1698SOL    HW1 5183   0.914   3.521   0.577 -0.7081 -0.4385 -1.6417
 1698SOL    HW2 5184   0.953   3.379   0.542 -2.8169 -0.9731 -1.9627
 1699SOL     OW 5185   2.940   0.191   0.642  0.5198  0.0722 -0.7815
 1699SOL    HW1 5186   3.028   0.157   0.655  0.6880  0.8938  0.3632
 1699SOL    HW2 5187   2.884   0.136   0.697  0.7391  1.3222  0.7623
 1700SOL     OW 5188   3.272   3.632   0.410 -0.4605 -0.7516  0.1140
 1700SOL    HW1 5189   3.344   3.692   0.392 -0.8872 -0.1558  0.3719
 1700SOL    HW2 5190   3.314   3.556   0.452 -0.1724  0.3312  1.8809
 1701SOL     OW 5191   3.668   1.742   3.239  0.1710  0.3707 -0.4919
 1701SOL    HW1 5192   3.673   1.835   3.218  0.4840  0.4874  0.0854
 1701SOL    HW2 5193   3.701   1.735   3.328  0.7497 -0.3807 -0.7532
 1702SOL     OW 5194   3.677   2.859   3.530 -0.7183  0.5427 -0.0788
 1702SOL    HW1 5195   3.765   2.884   3.559  0.0519 -0.7698 -1.1062
 1702SOL    HW2 5196   3.648   2.932   3.477 -0.1188  0.8830  0.0448
 1703SOL     OW 5197   1.054   1.521   3.031 -0.2618 -0.5548 -0.6415
 1703SOL    HW1 5198   0.988   1.469   3.076  0.7484  0.9616  2.9435
 1703SOL    HW2 5199   1.019   1.610   3.030  0.3848 -0.2848 -1.6468
 1704SOL     OW 5200   2.615   2.773   2.655  0.8976 -0.2047  0.4220
 1704SOL    HW1 5201   2.610   2.869   2.657  0.1114 -0.1937 -0.8772
 1704SOL    HW2 5202   2.696   2.754   2.610  1.9079 -0.2006  2.1351
 1705SOL     OW 5203   1.457   2.929   3.113  0.1779 -0.2039 -0.1990
 1705SOL    HW1 5204   1.547   2.923   3.081  0.5920 -2.1210  1.1490
 1705SOL    HW2 5205   1.466   2.953   3.206 -0.7968  1.0184 -0.3894
 1706SOL     OW 5206   3.419   0.913   0.360 -0.4152 -0.0648 -0.0447
 1706SOL    HW1 5207   3.484   0.971   0.399  1.1229 -0.5424 -1.7558
 1706SOL    HW2 5208   3.464   0.829   0.349 -1.4544 -0.5507 -0.8670
 1707SOL     OW 5209   0.291   1.984   1.456  0.9267  0.1986 -0.4573
 1707SOL    HW1 5210   0.318   2.076   1.454 -0.7684  0.7185 -0.9872
 1707SOL    HW2 5211   0.293   1.960   1.549  0.1113  1.1924 -0.1663
 1708SOL     OW 5212   0.989   0.240   3.223  0.4291 -0.1877 -0.4738
 1708SOL    HW1 5213   1.065   0.184   3.210  0.9220  0.2417  0.4808
 1708SOL    HW2 5214   0.925   0.208   3.159  0.9140 -1.4293 -0.3731
 1709SOL     OW 5215   1.422   1.590   2.729 -0.5025 -0.0529 -0.0477
 1709SOL    HW1 5216   1.374   1.559   2.652 -1.5590 -1.2336  1.0465
 1709SOL    HW2 5217   1.509   1.550   2.722  0.0291  1.2449 -1.4912
 1710SOL     OW 5218   2.470   2.420   3.871  0.0651 -0.4759  0.0795
 1710SOL    HW1 5219   2.517   2.342   3.843  0.7772 -0.0293  0.0089
 1710SOL    HW2 5220   2.410   2.439   3.798  0.3245 -0.6034 -0.1708
 1711SOL     OW 5221   2.284   3.219   1.701  0.1848 -0.7289  0.0210
 1711SOL    HW1 5222   2.226   3.179   1.766 -0.4193 -0.9937 -0.6660
 1711SOL    HW2 5223   2.365   3.237   1.749 -0.7962  0.6016  1.2845
 1712SOL     OW 5224   1.545   2.261   2.285  0.4482 -0.6099  0.4635
 1712SOL    HW1 5225   1.535   2.199   2.357 -0.4593  0.6527  1.4741
 1712SOL    HW2 5226   1.501   2.340   2.316 -0.9792 -0.3723 -1.9175
 1713SOL     OW 5227   2.329   1.364   0.790  0.1434 -0.1406  0.2110
 1713SOL    HW1 5228   2.399   1.409   0.742 -0.7212 -0.9853 -2.0039
 1713SOL    HW2 5229   2.256   1.426   0.789 -0.4902 -0.8502 -1.3349
 1714SOL     OW 5230   3.208   0.012   2.817 -0.1799  0.7164  0.0870
 1714SOL    HW1 5231   3.195   0.094   2.769  2.5233  1.2654  0.1352
 1714SOL    HW2 5232   3.242   0.040   2.902  2.0529 -0.4199 -0.3565
 1715SOL     OW 5233   1.393   1.662   1.474 -0.3899 -0.2403  0.0343
 1715SOL    HW1 5234   1.388   1.677   1.568 -1.4316  2.2494 -0.3384
 1715SOL    HW2 5235   1.423   1.572   1.465  0.5863 -0.2527  2.7317
 1716SOL     OW 5236   2.193   0.096   3.325 -0.4126 -0.6223 -0.1006
 1716SOL    HW1 5237   2.242   0.020   3.294  0.7051  0.7474 -1.8600
 1716SOL    HW2 5238   2.209   0.164   3.260  0.2659  1.7814  2.3732
 1717SOL     OW 5239   0.991   2.320   2.466  0.2332 -0.1559 -0.3580
 1717SOL    HW1 5240   1.037   2.258   2.411 -0.8166 -0.9182 -0.4071
 1717SOL    HW2 5241   1.047   2.398   2.467  0.1264  0.0292 -2.7786
 1718SOL     OW 5242   0.652   0.564   2.250  0.1779  0.0319  0.1784
 1718SOL    HW1 5243   0.557   0.565   2.260  0.2588  0.1819  0.9785
 1718SOL    HW2 5244   0.670   0.485   2.200 -0.3805  0.0924 -0.1241
 1719SOL     OW 5245   2.713   0.317   1.357 -0.2583  0.1903 -0.3128
 1719SOL    HW1 5246   2.779   0.383   1.339 -2.3364  2.8101  0.9064
 1719SOL    HW2 5247   2.700   0.321   1.452 -2.4118  0.1456 -0.5358
 1720SOL     OW 5248   0.891   0.313   1.292 -0.2238  0.7853 -0.0333
 1720SOL    HW1 5249   0.801   0.334   1.266 -0.4132 -0.2477 -0.2719
 1720SOL    HW2 5250   0.942   0.388   1.264 -0.9389  1.1588 -0.3655
 1721SOL     OW 5251   1.355   1.016   0.596  0.1082 -0.4430 -0.3703
 1721SOL    HW1 5252   1.337   1.109   0.581 -0.8154 -0.7401 -1.2297
 1721SOL    HW2 5253   1.449   1.012   0.610 -0.0532  0.8422  1.4797
 1722SOL     OW 5254   0.289   0.034   2.876  0.1491  0.4279 -0.9362
 1722SOL    HW1 5255   0.210   0.075   2.910 -0.2144  1.2779 -2.6672
 1722SOL    HW2 5256   0.273  -0.060   2.884 -1.4274  0.5649 -2.0191
 1723SOL     OW 5257   1.352   1.491   2.995  0.6475  0.4429  0.0648
 1723SOL    HW1 5258   1.374   1.555   2.927 -0.9283 -0.4958 -1.4141
 1723SOL    HW2 5259   1.258   1.501   3.008  0.6725 -0.4109  1.0542
 1724SOL     OW 5260   2.358   1.805   0.992  0.1864 -0.7181  0.0556
 1724SOL    HW1 5261   2.445   1.829   0.961 -0.1835  1.4275  0.5452
 1724SOL    HW2 5262   2.304   1.881   0.975 -1.3783 -1.6237  0.6980
 1725SOL     OW 5263   3.773   3.290   2.928 -0.1909  0.1869  0.5719
 1725SOL    HW1 5264   3.801   3.303   3.018 -0.8824 -1.2793  1.0354
 1725SOL    HW2 5265   3.842   3.237   2.888 -0.1997  0.2753  0.4382
 1726SOL     OW 5266   2.155   3.084   1.900  0.2801  0.2385 -0.5197
 1726SOL    HW1 5267   2.198   3.005   1.932  0.0472  0.4764  0.4017
 1726SOL    HW2 5268   2.100   3.113   1.973  3.0417  3.2762  0.5839
 1727SOL     OW 5269   3.671   1.654   1.361 -0.3863  0.2916  0.1846
 1727SOL    HW1 5270   3.674   1.670   1.267 -0.1094  0.7597  0.2629
 1727SOL    HW2 5271   3.763   1.657   1.388 -0.4810  0.4116  0.5029
 1728SOL     OW 5272   0.312   1.428   2.699 -0.1259 -0.4645 -0.2325
 1728SOL    HW1 5273   0.327   1.456   2.609 -1.3680  0.1330 -0.2724
 1728SOL    HW2 5274   0.220   1.449   2.716 -0.7826 -3.2508  0.2098
 1729SOL     OW 5275   3.293   1.392   0.314  0.4756  0.2343  0.2755
 1729SOL    HW1 5276   3.340   1.471   0.340 -0.1485  0.6215  0.2400
 1729SOL    HW2 5277   3.207   1.423   0.286 -0.3888 -0.6060  1.8488
 1730SOL     OW 5278   3.634   1.943   2.351 -0.0015 -0.1736 -0.4831
 1730SOL    HW1 5279   3.672   1.855   2.362 -1.3418 -1.0310 -2.1287
 1730SOL    HW2 5280   3.658   1.967   2.261 -1.4098  0.2170 -0.7698
 1731SOL     OW 5281   2.764   0.633   0.229 -0.0558  0.2513  0.3789
 1731SOL    HW1 5282   2.770   0.685   0.309 -1.1248  1.0491 -0.0481
 1731SOL    HW2 5283   2.851   0.642   0.189 -0.5013  2.5256 -0.1687
 1732SOL     OW 5284   2.950   0.836   1.112 -0.0026 -0.0259  0.2406
 1732SOL    HW1 5285   3.009   0.849   1.037 -1.9008  1.0038 -1.1697
 1732SOL    HW2 5286   2.904   0.754   1.092  0.8685 -0.7987  1.3088
 1733SOL     OW 5287   0.657   2.872   1.788  0.0951 -1.0781  0.3997
 1733SOL    HW1 5288   0.724   2.907   1.847  1.2928  0.8931 -1.9602
 1733SOL    HW2 5289   0.704   2.811   1.732 -0.1788 -0.2047 -0.8236
 1734SOL     OW 5290   1.353   2.468   3.682  0.0767  0.7665 -0.0647
 1734SOL    HW1 5291   1.284   2.533   3.695 -1.0555 -0.5447  0.9184
 1734SOL    HW2 5292   1.323   2.392   3.733  2.1266  0.0465  0.1418
 1735SOL     OW 5293   0.709   0.103   2.663  0.2618  0.1157  0.0465
 1735SOL    HW1 5294   0.675   0.023   2.703  2.0617 -1.3724 -1.2285
 1735SOL    HW2 5295   0.737   0.076   2.575  3.6012  1.4212  0.5625
 1736SOL     OW 5296   0.589   1.433   0.589 -0.1640  0.1535 -0.3192
 1736SOL    HW1 5297   0.678   1.436   0.553 -0.3292 -1.8792 -0.9758
 1736SOL    HW2 5298   0.581   1.516   0.637  2.2224  0.2039  0.1269
 1737SOL     OW 5299   3.789   2.500   3.292  0.3119 -0.9349 -0.0105
 1737SOL    HW1 5300   3.751   2.431   3.237  1.1843  0.9880 -3.3416
 1737SOL    HW2 5301   3.883   2.481   3.292  0.4255 -0.3828 -0.0006
 1738SOL     OW 5302   1.798   1.705   0.352  0.5159 -0.0607  0.1804
 1738SOL    HW1 5303   1.838   1.661   0.428  0.4174 -0.5053 -0.0189
 1738SOL    HW2 5304   1.737   1.768   0.390  0.9026  0.1404  0.4780
 1739SOL     OW 5305   0.061   3.256   1.646  0.3146 -0.8700  0.1340
 1739SOL    HW1 5306  -0.033   3.248   1.631  0.5878 -3.0576 -0.8915
 1739SOL    HW2 5307   0.096   3.294   1.565  0.3920 -0.7061  0.2437
 1740SOL     OW 5308   1.710   1.715   2.914 -0.3856 -0.5323  0.0584
 1740SOL    HW1 5309   1.791   1.673   2.943 -0.7997 -1.1464  0.3574
 1740SOL    HW2 5310   1.655   1.717   2.992 -0.7645 -0.3827 -0.2110
 1741SOL     OW 5311   2.517   2.392   2.164 -0.5067 -0.4527 -0.4586
 1741SOL    HW1 5312   2.577   2.403   2.238 -0.1359  0.9193 -0.9425
 1741SOL    HW2 5313   2.431   2.379   2.205 -0.1142 -1.0282  0.2201
 1742SOL     OW 5314   0.756   1.172   1.135 -0.3690  0.5818 -0.1247
 1742SOL    HW1 5315   0.718   1.168   1.223 -1.5989 -3.6237 -0.6403
 1742SOL    HW2 5316   0.681   1.181   1.077  0.1132 -0.1857 -0.8774
 1743SOL     OW 5317   0.128   2.380   1.648  0.4371  0.0323  0.1725
 1743SOL    HW1 5318   0.062   2.324   1.609 -0.6314  2.0652 -1.0737
 1743SOL    HW2 5319   0.108   2.380   1.742 -2.0414  1.3903 -0.2855
 1744SOL     OW 5320   3.296   2.851   3.705 -0.0506  0.1254  0.0716
 1744SOL    HW1 5321   3.235   2.830   3.635 -0.4411 -1.0422  0.7255
 1744SOL    HW2 5322   3.362   2.782   3.701  0.9009  1.0284 -0.2315
 1745SOL     OW 5323   1.377   3.343   3.205  0.1225 -0.2238 -0.1439
 1745SOL    HW1 5324   1.382   3.333   3.300  1.7378  0.8976 -0.0755
 1745SOL    HW2 5325   1.298   3.295   3.181  1.4823 -3.5714  1.3558
 1746SOL     OW 5326   1.034   0.645   0.895  0.1929 -0.2820 -0.1402
 1746SOL    HW1 5327   1.049   0.623   0.987  0.5485 -0.8291 -0.3292
 1746SOL    HW2 5328   1.024   0.561   0.851 -2.1753 -0.0111 -0.2613
 1747SOL     OW 5329   2.944   0.712   0.503  0.0621 -0.6118 -0.3554
 1747SOL    HW1 5330   2.970   0.797   0.467 -0.3884 -0.8822 -1.3498
 1747SOL    HW2 5331   2.849   0.720   0.516  0.5331  0.6192  3.9037
 1748SOL     OW 5332   2.011   0.417   0.892 -0.2148 -0.4106  0.2616
 1748SOL    HW1 5333   2.019   0.411   0.987  0.9881 -0.1877  0.1950
 1748SOL    HW2 5334   1.946   0.350   0.869 -0.2468 -0.7179  1.2031
 1749SOL     OW 5335   0.691   2.691   3.273 -0.0659 -0.9265 -0.0086
 1749SOL    HW1 5336   0.785   2.671   3.278  0.0193 -0.4810  0.2150
 1749SOL    HW2 5337   0.669   2.680   3.180  0.5427  0.4510 -0.3350
 1750SOL     OW 5338   2.382   3.650   1.054 -0.5779  0.2944 -0.6351
 1750SOL    HW1 5339   2.388   3.619   1.145  0.2228  2.9349  0.3102
 1750SOL    HW2 5340   2.302   3.610   1.021  0.0505 -2.1996  0.5873
 1751SOL     OW 5341   3.129   1.662   2.230  0.0039  0.4081 -0.4198
 1751SOL    HW1 5342   3.124   1.569   2.206 -0.4637 -0.0705  1.3833
 1751SOL    HW2 5343   3.092   1.708   2.154 -1.7568 -1.0320 -0.4942
 1752SOL     OW 5344   0.440   1.169   1.119 -0.3620 -0.3018 -0.0037
 1752SOL    HW1 5345   0.378   1.240   1.136 -0.5916 -0.5757  0.3034
 1752SOL    HW2 5346   0.429   1.149   1.026  2.1492  2.4060 -1.0361
 1753SOL     OW 5347   1.197   0.618   1.169  0.6244 -0.0542  0.4475
 1753SOL    HW1 5348   1.253   0.665   1.107  1.5442  1.0406  2.0212
 1753SOL    HW2 5349   1.182   0.681   1.240 -0.9006 -1.0446  1.0679
 1754SOL     OW 5350   0.238   2.636   1.654  0.4109  0.1925 -0.0674
 1754SOL    HW1 5351   0.320   2.600   1.688  0.4071  0.7457  0.5630
 1754SOL    HW2 5352   0.181   2.561   1.642 -0.5439  0.0989  3.7623
 1755SOL     OW 5353   3.666   0.096   1.779  0.0181 -0.1818  0.9190
 1755SOL    HW1 5354   3.591   0.111   1.836 -1.9414  0.7682 -1.7013
 1755SOL    HW2 5355   3.637   0.028   1.718  1.2252  0.2661 -0.2140
 1756SOL     OW 5356   0.231   0.473   0.724  0.0966 -0.1728 -0.2792
 1756SOL    HW1 5357   0.260   0.389   0.760  0.5744  0.1499  0.1096
 1756SOL    HW2 5358   0.195   0.520   0.799  1.0393  0.4793 -0.2137
 1757SOL     OW 5359   1.417   1.530   3.628 -0.0114 -0.2629 -0.7231
 1757SOL    HW1 5360   1.421   1.594   3.557 -1.1247  0.3670 -0.2690
 1757SOL    HW2 5361   1.323   1.516   3.641  0.1702 -0.3595  0.6059
 1758SOL     OW 5362   1.785   1.096   3.805 -0.0226 -0.0986 -0.0084
 1758SOL    HW1 5363   1.698   1.110   3.842 -0.2157  2.2208 -1.1738
 1758SOL    HW2 5364   1.845   1.134   3.868  0.0950 -0.7963  0.3148
 1759SOL     OW 5365   0.418   1.367   1.621  0.3305 -0.0002 -0.2254
 1759SOL    HW1 5366   0.467   1.344   1.542  1.5307  0.0215  0.4800
 1759SOL    HW2 5367   0.354   1.432   1.591 -1.2596 -2.0913 -1.7103
 1760SOL     OW 5368   1.588   1.302   2.269 -0.1721  0.5848  0.1992
 1760SOL    HW1 5369   1.551   1.266   2.189 -0.1785  0.4619  0.2575
 1760SOL    HW2 5370   1.588   1.229   2.331  0.8065  0.3977 -0.0061
 1761SOL     OW 5371   0.394   1.416   2.400  0.2053  0.2272  0.0716
 1761SOL    HW1 5372   0.328   1.455   2.342 -0.6060  0.1992  0.9581
 1761SOL    HW2 5373   0.349   1.343   2.442  0.7512  0.2971  0.7961
 1762SOL     OW 5374   1.754   0.320   3.716  0.0054 -0.1278 -0.4905
 1762SOL    HW1 5375   1.740   0.399   3.664  0.3573 -0.1806 -0.6654
 1762SOL    HW2 5376   1.669   0.275   3.713 -0.1752  0.2016 -0.4515
 1763SOL     OW 5377   1.718   3.460   1.746 -0.4963  0.4781 -0.2076
 1763SOL    HW1 5378   1.778   3.386   1.755  0.5980  1.1181 -1.7402
 1763SOL    HW2 5379   1.674   3.466   1.831 -1.5687 -2.6721 -0.4124
 1764SOL     OW 5380   0.881   1.088   1.894 -0.2058  0.1141 -0.0876
 1764SOL    HW1 5381   0.912   1.041   1.816 -1.2517 -0.9301  0.1025
 1764SOL    HW2 5382   0.826   1.025   1.940 -0.7652  1.1877  0.7575
 1765SOL     OW 5383   2.774   2.726   0.921 -0.1942  0.1705 -0.5109
 1765SOL    HW1 5384   2.720   2.788   0.971  0.9057  0.0783  0.8457
 1765SOL    HW2 5385   2.761   2.752   0.830 -0.7521  1.5958 -0.0573
 1766SOL     OW 5386   3.453   3.464   1.113  0.0146  0.2138  0.4779
 1766SOL    HW1 5387   3.439   3.543   1.060  0.3038 -0.5326 -0.7534
 1766SOL    HW2 5388   3.365   3.434   1.136 -0.1107  2.3341  3.2600
 1767SOL     OW 5389   0.875   0.704   2.518  0.1848 -0.3383  0.1639
 1767SOL    HW1 5390   0.903   0.790   2.486  1.0144  0.5058  2.8793
 1767SOL    HW2 5391   0.781   0.700   2.501  0.1888  0.9941 -0.2260
 1768SOL     OW 5392   1.033   1.245   3.596 -0.0333  0.2700  0.0245
 1768SOL    HW1 5393   1.051   1.152   3.591  0.3515  0.3160  0.4906
 1768SOL    HW2 5394   1.059   1.271   3.684 -0.1683  0.8117 -0.0848
 1769SOL     OW 5395   2.208   2.530   0.863  0.0368 -0.7254 -0.0051
 1769SOL    HW1 5396   2.279   2.587   0.891 -0.0484 -0.5599 -0.1197
 1769SOL    HW2 5397   2.180   2.566   0.779 -1.7929  0.7091  1.1445
 1770SOL     OW 5398   0.650   1.851   2.609  0.3408 -0.1219  0.2853
 1770SOL    HW1 5399   0.594   1.783   2.573  0.3356  0.5847 -1.1271
 1770SOL    HW2 5400   0.735   1.837   2.567 -0.2394  2.0626 -1.8888
 1771SOL     OW 5401   3.156   1.249   0.520  0.4882  0.4849 -0.0106
 1771SOL    HW1 5402   3.172   1.298   0.601  0.2555  1.4656 -0.5352
 1771SOL    HW2 5403   3.225   1.276   0.461 -0.0534  0.7273 -0.5451
 1772SOL     OW 5404   2.207   2.151   1.442  0.3550  0.3440 -0.0922
 1772SOL    HW1 5405   2.170   2.194   1.365  1.3117  0.4794 -0.4908
 1772SOL    HW2 5406   2.155   2.183   1.516 -2.0323 -1.4192 -0.8582
 1773SOL     OW 5407   1.223   2.531   3.341 -0.2723  0.1766 -0.1884
 1773SOL    HW1 5408   1.305   2.484   3.355 -0.6233  0.0099  1.5460
 1773SOL    HW2 5409   1.239   2.620   3.373 -1.3404 -0.4310  2.3020
 1774SOL     OW 5410   1.149   3.273   1.476  0.0514  0.2561  0.3646
 1774SOL    HW1 5411   1.212   3.214   1.436  0.8114  0.9218  0.5565
 1774SOL    HW2 5412   1.202   3.342   1.516 -0.7981  0.8794  0.4517
 1775SOL     OW 5413   2.822   0.354   0.491 -0.0105 -0.2120  0.3309
 1775SOL    HW1 5414   2.850   0.277   0.540 -1.6982 -1.0813 -0.0103
 1775SOL    HW2 5415   2.904   0.402   0.474  0.9324 -1.2914  1.5697
 1776SOL     OW 5416   0.065   0.278   0.249  0.3987  0.5715 -0.3382
 1776SOL    HW1 5417   0.021   0.240   0.325  0.5699 -0.1736 -0.5925
 1776SOL    HW2 5418   0.056   0.372   0.260  0.2433  0.4703  0.4989
 1777SOL     OW 5419   0.768   3.665   0.856  0.3265 -0.5192 -0.0994
 1777SOL    HW1 5420   0.796   3.575   0.840  0.1986 -1.1094  2.5638
 1777SOL    HW2 5421   0.838   3.703   0.908  0.0396  0.7017 -0.5727
 1778SOL     OW 5422   2.679   2.710   0.342 -0.2907  0.3104 -0.0721
 1778SOL    HW1 5423   2.633   2.695   0.425  0.6019  0.4981  0.4726
 1778SOL    HW2 5424   2.643   2.645   0.282 -0.4551 -0.2818  0.6589
 1779SOL     OW 5425   0.790   2.977   0.865  0.0780  0.5058 -0.1787
 1779SOL    HW1 5426   0.863   3.012   0.814 -0.5157 -1.3464 -2.4267
 1779SOL    HW2 5427   0.713   3.021   0.829 -0.1802  0.6557  0.5360
 1780SOL     OW 5428   1.726   2.142   1.241  0.1969  0.8709 -0.1890
 1780SOL    HW1 5429   1.723   2.048   1.223  2.7474  0.3357  1.7065
 1780SOL    HW2 5430   1.754   2.182   1.159  1.0005 -0.2401 -0.4675
 1781SOL     OW 5431   2.011   0.268   1.367 -0.0854 -0.1809 -0.2043
 1781SOL    HW1 5432   2.001   0.304   1.455  1.1302  0.2763 -0.2315
 1781SOL    HW2 5433   1.956   0.190   1.366 -0.8941  0.3659  0.6308
 1782SOL     OW 5434   1.246   1.650   2.339 -0.0858 -0.1592 -0.2570
 1782SOL    HW1 5435   1.323   1.704   2.358  0.8944 -1.1189 -1.3547
 1782SOL    HW2 5436   1.262   1.616   2.251 -0.3896 -2.7272  0.6130
 1783SOL     OW 5437   3.558   0.684   2.367  0.7526  0.4849 -0.4724
 1783SOL    HW1 5438   3.502   0.754   2.334 -0.8964  0.2578  1.6365
 1783SOL    HW2 5439   3.617   0.728   2.428  0.8676  0.2835 -0.4388
 1784SOL     OW 5440   1.095   3.186   2.483  0.5654 -0.0953  0.1774
 1784SOL    HW1 5441   1.047   3.114   2.525  0.7653 -0.1148  0.3743
 1784SOL    HW2 5442   1.036   3.261   2.489  0.4336 -0.1943  0.1427
 1785SOL     OW 5443   0.590   2.165   0.304  0.3809 -0.1523  0.1560
 1785SOL    HW1 5444   0.630   2.090   0.347 -0.0134 -0.4548  0.0091
 1785SOL    HW2 5445   0.503   2.173   0.344 -0.2874 -0.8992 -1.0564
 1786SOL     OW 5446   0.799   3.332   2.727  0.0243  0.2667 -0.3730
 1786SOL    HW1 5447   0.709   3.361   2.743 -0.5696 -1.4337 -0.4400
 1786SOL    HW2 5448   0.836   3.399   2.670 -1.2475  0.9141 -0.4711
 1787SOL     OW 5449   3.316   2.260   3.767  0.8358 -0.3089  0.1021
 1787SOL    HW1 5450   3.260   2.281   3.842  0.9205 -1.9660  0.6757
 1787SOL    HW2 5451   3.338   2.345   3.729 -1.9132  0.4239 -0.0564
 1788SOL     OW 5452   0.648   1.043   0.887 -0.3083 -0.2680 -0.0879
 1788SOL    HW1 5453   0.709   0.974   0.859  1.0055  1.1197 -0.8118
 1788SOL    HW2 5454   0.580   1.044   0.820 -0.1833 -0.6716 -0.2242
 1789SOL     OW 5455   0.464   3.259   2.634 -0.0789  0.2486 -0.2411
 1789SOL    HW1 5456   0.463   3.331   2.571 -0.0785  0.9761  0.5705
 1789SOL    HW2 5457   0.426   3.185   2.587 -0.1037  0.7863 -1.0823
 1790SOL     OW 5458   0.928   3.247   0.180 -0.2432 -0.3255  0.0981
 1790SOL    HW1 5459   0.986   3.181   0.216  1.2805  0.3469 -1.0030
 1790SOL    HW2 5460   0.937   3.322   0.238 -0.6665 -0.4947  0.3895
 1791SOL     OW 5461   3.871   3.436   1.081 -0.1746 -0.4667 -0.4727
 1791SOL    HW1 5462   3.886   3.482   0.998  1.6387  1.7783  0.9631
 1791SOL    HW2 5463   3.957   3.403   1.105 -0.5272 -0.4788  0.8315
 1792SOL     OW 5464   3.419   3.430   0.515 -0.2905 -0.0938 -0.5656
 1792SOL    HW1 5465   3.370   3.362   0.469  0.7189 -0.4021 -1.1986
 1792SOL    HW2 5466   3.445   3.390   0.598 -0.2271 -0.2703 -0.6715
 1793SOL     OW 5467   2.042   1.933   2.704 -0.2784  0.3616 -0.0568
 1793SOL    HW1 5468   1.987   2.011   2.695  0.1344  0.4465 -2.4871
 1793SOL    HW2 5469   2.016   1.877   2.631  0.4053 -1.1934  0.8326
 1794SOL     OW 5470   1.486   0.097   0.056  0.2257  0.3269 -0.1026
 1794SOL    HW1 5471   1.545   0.153   0.106  1.0138 -0.6423  0.0811
 1794SOL    HW2 5472   1.483   0.137  -0.031  1.6619  0.0630 -0.2980
 1795SOL     OW 5473   0.701   1.932   0.414 -0.2949  0.2810  0.3616
 1795SOL    HW1 5474   0.728   1.872   0.483  0.5458  0.1806 -0.0453
 1795SOL    HW2 5475   0.697   1.878   0.335  0.6669  0.7904 -0.0473
 1796SOL     OW 5476   1.734   3.655   0.525  0.0921 -0.2770 -0.4428
 1796SOL    HW1 5477   1.711   3.593   0.456 -2.0201 -0.6895  0.5343
 1796SOL    HW2 5478   1.735   3.741   0.482  2.6038 -0.8500 -1.7121
 1797SOL     OW 5479   3.557   2.151   2.799 -0.0968  0.5579 -1.0320
 1797SOL    HW1 5480   3.520   2.220   2.854  0.2684  0.4493 -0.6495
 1797SOL    HW2 5481   3.652   2.161   2.808  0.0316  1.4880 -2.7972
 1798SOL     OW 5482   1.017   2.619   1.000 -0.7359 -0.0424 -0.2005
 1798SOL    HW1 5483   0.955   2.659   1.061 -0.5913  0.7303 -0.5520
 1798SOL    HW2 5484   1.103   2.637   1.037 -0.6980 -0.8258  0.1125
 1799SOL     OW 5485   1.565   2.403   2.031  0.4544 -0.3375  0.0622
 1799SOL    HW1 5486   1.635   2.362   1.980  2.2037  1.1512  1.1564
 1799SOL    HW2 5487   1.562   2.354   2.113  1.5121  0.7257  0.7588
 1800SOL     OW 5488   2.764   2.471   1.038 -0.7408 -0.1091  0.1136
 1800SOL    HW1 5489   2.762   2.559   0.999 -0.2243  0.1203  0.5947
 1800SOL    HW2 5490   2.857   2.448   1.038 -0.8212 -0.4234  0.5069
 1801SOL     OW 5491   2.902   2.199   1.888  0.2617 -0.0784  0.3500
 1801SOL    HW1 5492   2.943   2.207   1.802 -0.8934 -2.8083 -0.5796
 1801SOL    HW2 5493   2.965   2.151   1.941 -0.1247 -0.8224  0.1461
 1802SOL     OW 5494   3.595   0.073   2.711  0.6957 -0.0602 -0.2552
 1802SOL    HW1 5495   3.575   0.132   2.638 -0.5337  0.6895  0.6463
 1802SOL    HW2 5496   3.647   0.003   2.671 -0.7049 -0.1698 -2.0485
 1803SOL     OW 5497   0.044   3.566   0.846 -0.1875 -0.2207 -0.0608
 1803SOL    HW1 5498   0.024   3.655   0.875 -0.6954  0.0979 -1.3343
 1803SOL    HW2 5499   0.127   3.574   0.799  1.2742 -0.9479  2.2504
 1804SOL     OW 5500   1.238   3.107   2.246  0.1111  0.1277  0.6335
 1804SOL    HW1 5501   1.156   3.060   2.229 -0.9452  1.9507  0.3431
 1804SOL    HW2 5502   1.222   3.153   2.328  1.1676 -0.1094  0.9882
 1805SOL     OW 5503   1.529   1.490   0.003  0.0262 -0.0776 -0.2221
 1805SOL    HW1 5504   1.497   1.431  -0.066  0.7862 -0.4345 -0.2866
 1805SOL    HW2 5505   1.612   1.451   0.031  0.4782  0.8811 -0.1648
 1806SOL     OW 5506   2.933   0.180   0.970  0.3627  0.0723 -0.2339
 1806SOL    HW1 5507   2.912   0.122   1.043  0.7166  2.4970  1.9535
 1806SOL    HW2 5508   2.853   0.230   0.955  1.1696  1.7250  0.6764
 1807SOL     OW 5509   1.586   1.471   0.942 -0.4357  0.6663 -0.4162
 1807SOL    HW1 5510   1.560   1.490   1.032  0.0186 -2.0807  0.3782
 1807SOL    HW2 5511   1.504   1.457   0.895 -0.6355 -0.5422  0.2542
 1808SOL     OW 5512   3.354   1.353   1.859  0.3037 -0.1118  0.3991
 1808SOL    HW1 5513   3.385   1.283   1.802  1.3309  0.3571  0.3589
 1808SOL    HW2 5514   3.280   1.392   1.812 -1.4336 -2.2552  1.2042
 1809SOL     OW 5515   1.720   2.319   3.546  0.2255 -0.1850  0.1194
 1809SOL    HW1 5516   1.701   2.412   3.561 -2.1874 -0.4670 -0.6396
 1809SOL    HW2 5517   1.736   2.313   3.452 -2.2238 -0.8174 -0.3363
 1810SOL     OW 5518   0.608   0.315   3.167 -0.2884 -0.2975 -0.5180
 1810SOL    HW1 5519   0.611   0.307   3.262  0.6879 -0.6621 -0.5672
 1810SOL    HW2 5520   0.603   0.409   3.151 -3.0816 -0.2906 -0.0832
 1811SOL     OW 5521   2.411   2.315   1.735  0.0360 -0.4448  0.6580
 1811SOL    HW1 5522   2.473   2.284   1.801  0.2515 -1.0073  0.2003
 1811SOL    HW2 5523   2.449   2.287   1.652 -0.4325 -0.0875  0.3221
 1812SOL     OW 5524   0.068   2.927   2.529 -0.0985  0.1190  0.1891
 1812SOL    HW1 5525  -0.013   2.900   2.573 -0.5628 -0.8071 -1.1791
 1812SOL    HW2 5526   0.137   2.890   2.584 -0.6626 -1.1337  0.0986
 1813SOL     OW 5527   2.300   2.835   1.162  0.5407 -0.3016 -0.2267
 1813SOL    HW1 5528   2.375   2.867   1.211  0.5865  0.0368 -0.5199
 1813SOL    HW2 5529   2.305   2.879   1.077 -0.5034  0.4414  0.0814
 1814SOL     OW 5530   0.121   2.031   2.708  0.1365  0.0273 -0.0228
 1814SOL    HW1 5531   0.144   2.124   2.706  1.1750 -0.2164 -1.8405
 1814SOL    HW2 5532   0.045   2.024   2.649  0.2099 -0.3095 -0.0797
 1815SOL     OW 5533   2.799   3.632   0.683  0.1009  0.2184 -0.1192
 1815SOL    HW1 5534   2.860   3.562   0.661  0.6823  1.3369 -2.4418
 1815SOL    HW2 5535   2.715   3.588   0.694  0.8828 -1.0858  0.8143
 1816SOL     OW 5536   3.749   3.248   1.456 -0.4662 -0.2194 -0.1288
 1816SOL    HW1 5537   3.656   3.238   1.438 -0.7290 -2.1333  1.9152
 1816SOL    HW2 5538   3.791   3.177   1.408 -0.2175 -0.1628  0.0011
 1817SOL     OW 5539   0.186   0.254   2.411 -0.6339 -0.1724 -0.3734
 1817SOL    HW1 5540   0.148   0.325   2.360  0.6978 -0.2751 -1.5632
 1817SOL    HW2 5541   0.148   0.175   2.374 -1.3995 -0.1378  0.3249
 1818SOL     OW 5542   2.571   1.113   2.893  0.0637 -0.2700 -0.0895
 1818SOL    HW1 5543   2.569   1.031   2.844  0.5816 -0.0089 -0.5602
 1818SOL    HW2 5544   2.496   1.108   2.951  0.6678 -1.5276  0.6167
 1819SOL     OW 5545   1.645   1.194   1.534  0.4109 -0.5151  0.1451
 1819SOL    HW1 5546   1.706   1.175   1.605  1.3323  0.2073 -0.4387
 1819SOL    HW2 5547   1.664   1.128   1.468  0.9671  0.0589 -0.2764
 1820SOL     OW 5548   2.703   1.062   2.019  0.7718 -0.1129 -0.0116
 1820SOL    HW1 5549   2.639   0.992   2.034 -1.0601  1.0413 -1.8790
 1820SOL    HW2 5550   2.785   1.027   2.053 -0.2777 -2.7729  0.0421
 1821SOL     OW 5551   3.493   0.691   3.628 -0.0043 -0.1103 -0.1110
 1821SOL    HW1 5552   3.435   0.667   3.556 -0.7309  0.7112  0.1798
 1821SOL    HW2 5553   3.463   0.778   3.655  1.3690  0.3493  0.0436
 1822SOL     OW 5554   2.530   3.292   1.824  0.4241 -0.3329 -0.3784
 1822SOL    HW1 5555   2.569   3.371   1.788  0.7473 -0.2130  0.2308
 1822SOL    HW2 5556   2.601   3.249   1.871 -0.0478 -0.3744  0.3037
 1823SOL     OW 5557   0.620   0.314   1.726 -0.1707  0.0208  0.3204
 1823SOL    HW1 5558   0.668   0.395   1.708 -1.8285  0.6412 -1.7419
 1823SOL    HW2 5559   0.671   0.271   1.795  1.3982  2.2450  0.6772
 1824SOL     OW 5560   1.321   3.766   0.184  0.7772 -0.2202  0.7309
 1824SOL    HW1 5561   1.305   3.799   0.272  3.1740 -0.3787  1.2982
 1824SOL    HW2 5562   1.388   3.824   0.148 -0.2024 -0.1203 -1.0427
 1825SOL     OW 5563   2.530   2.687   3.797  0.4782  0.1538  0.5470
 1825SOL    HW1 5564   2.613   2.722   3.764  1.4658 -1.1521  1.5257
 1825SOL    HW2 5565   2.549   2.595   3.815 -0.8142  0.1336  2.0194
 1826SOL     OW 5566   3.664   1.728   1.970 -0.0968 -0.3328  0.1618
 1826SOL    HW1 5567   3.647   1.681   1.889 -1.2116 -0.6580  0.5698
 1826SOL    HW2 5568   3.578   1.760   1.998  0.0375 -1.3708  1.9173
 1827SOL     OW 5569   0.558   3.055   2.972  0.2090 -0.1241 -0.3670
 1827SOL    HW1 5570   0.545   2.972   2.925 -1.5403  0.9686 -1.9606
 1827SOL    HW2 5571   0.649   3.079   2.953  0.8887 -1.8347  0.4666
 1828SOL     OW 5572   2.133   1.564   0.733 -0.0230 -0.2074 -0.2338
 1828SOL    HW1 5573   2.152   1.655   0.711  0.1034  0.0175  0.7372
 1828SOL    HW2 5574   2.080   1.569   0.812 -2.7612 -0.8790 -1.9015
 1829SOL     OW 5575   0.113   1.588   2.577  0.1136  0.6160 -0.1391
 1829SOL    HW1 5576   0.087   1.498   2.559  0.2459  0.3685  0.8532
 1829SOL    HW2 5577   0.071   1.639   2.508  1.0084 -0.3216 -1.4263
 1830SOL     OW 5578   2.785   3.419   2.103 -0.1662 -0.1525 -0.4843
 1830SOL    HW1 5579   2.712   3.356   2.100  0.3533 -0.7311 -1.5467
 1830SOL    HW2 5580   2.864   3.364   2.102  0.3187  0.4450  1.0874
 1831SOL     OW 5581   3.543   0.443   2.236 -0.8743  0.0346 -0.4398
 1831SOL    HW1 5582   3.452   0.424   2.259 -0.5392 -0.3163  0.6775
 1831SOL    HW2 5583   3.562   0.526   2.279 -0.1651 -0.7468  0.8273
 1832SOL     OW 5584   0.186   0.206   3.474 -0.4239  0.1194  0.0707
 1832SOL    HW1 5585   0.162   0.115   3.457 -1.3703  0.2822  0.4360
 1832SOL    HW2 5586   0.113   0.240   3.526  0.1691  0.9403  0.3817
 1833SOL     OW 5587   1.193   0.429   0.153  1.3597 -0.2477  0.1610
 1833SOL    HW1 5588   1.285   0.445   0.173  1.9542 -0.9037 -1.7857
 1833SOL    HW2 5589   1.159   0.383   0.230  2.9037 -0.7954  0.5501
 1834SOL     OW 5590   0.619   0.981   3.203 -0.0006 -0.0288  0.2718
 1834SOL    HW1 5591   0.579   0.985   3.117  1.9653  2.2245 -0.6488
 1834SOL    HW2 5592   0.560   1.032   3.259 -0.7592 -0.6408  0.0473
 1835SOL     OW 5593   3.743   3.126   2.077 -0.0657 -0.2124  0.0734
 1835SOL    HW1 5594   3.783   3.055   2.026  1.5849  0.7455 -0.0458
 1835SOL    HW2 5595   3.773   3.109   2.167  2.4175  1.5931 -0.2998
 1836SOL     OW 5596   1.894   0.801   1.577  0.2390  0.4350 -0.5003
 1836SOL    HW1 5597   1.932   0.885   1.552  2.2710 -0.3602 -0.3025
 1836SOL    HW2 5598   1.938   0.737   1.521  0.5034 -0.7211  0.9557
 1837SOL     OW 5599   0.572   0.385   3.441 -0.3006  0.0183 -0.2811
 1837SOL    HW1 5600   0.657   0.405   3.480 -0.6861 -0.5483  0.9166
 1837SOL    HW2 5601   0.553   0.295   3.470 -0.7646 -0.3090 -1.5316
 1838SOL     OW 5602   0.300   0.817   3.148  0.3847  0.4448 -0.1913
 1838SOL    HW1 5603   0.345   0.852   3.071 -0.4147  1.0549 -0.3934
 1838SOL    HW2 5604   0.240   0.886   3.175  1.5524  0.7607  1.7884
 1839SOL     OW 5605   1.961   2.365   3.811 -0.2194 -0.4075 -0.0638
 1839SOL    HW1 5606   1.936   2.456   3.828 -1.9779 -0.9695  0.6016
 1839SOL    HW2 5607   1.880   2.323   3.782  0.5550 -1.7727 -0.3369
 1840SOL     OW 5608   2.670   0.340   2.496 -0.2642 -0.1965  0.3085
 1840SOL    HW1 5609   2.713   0.284   2.431 -0.8850 -0.1478 -0.1692
 1840SOL    HW2 5610   2.741   0.386   2.541  0.1976 -0.5585 -0.0474
 1841SOL     OW 5611   1.323   2.309   0.864 -0.2178 -0.3565 -0.3241
 1841SOL    HW1 5612   1.361   2.255   0.933 -2.3477 -3.3745 -1.2602
 1841SOL    HW2 5613   1.385   2.302   0.791  0.5450  0.2707  0.2498
 1842SOL     OW 5614   3.422   1.748   2.493  0.0147  0.2296  0.0354
 1842SOL    HW1 5615   3.429   1.840   2.518 -1.0356 -0.1941  2.1568
 1842SOL    HW2 5616   3.352   1.713   2.548 -0.2964 -1.6236 -1.4231
 1843SOL     OW 5617   1.694   3.561   3.255 -0.3940 -0.5297 -0.8581
 1843SOL    HW1 5618   1.599   3.566   3.248 -0.2873 -0.4395 -2.9595
 1843SOL    HW2 5619   1.715   3.605   3.337 -2.0850  0.3697 -0.8662
 1844SOL     OW 5620   3.179   0.184   0.271  0.1745 -0.2209  0.2729
 1844SOL    HW1 5621   3.148   0.100   0.305 -0.3224 -0.7789 -1.4781
 1844SOL    HW2 5622   3.265   0.195   0.311 -0.5732 -0.5746  2.0868
 1845SOL     OW 5623   0.799   3.145   2.097 -0.0102  0.1751 -0.1466
 1845SOL    HW1 5624   0.717   3.102   2.118  0.5997 -0.9602 -0.0031
 1845SOL    HW2 5625   0.867   3.085   2.130  0.8899  0.6577 -1.0539
 1846SOL     OW 5626   0.530   0.623   3.180  0.0810 -0.0215 -0.3651
 1846SOL    HW1 5627   0.469   0.690   3.151 -0.8729 -1.0607 -0.8516
 1846SOL    HW2 5628   0.547   0.643   3.272 -1.3309  0.0574 -0.1070
 1847SOL     OW 5629   0.225   2.253   2.267  0.3751 -0.0857  0.2223
 1847SOL    HW1 5630   0.157   2.318   2.249 -0.5481 -1.3040 -0.9197
 1847SOL    HW2 5631   0.293   2.301   2.314  0.2566  1.9802 -1.5662
 1848SOL     OW 5632   2.160   0.142   0.280  0.2107  0.1188 -0.0901
 1848SOL    HW1 5633   2.208   0.157   0.198  0.2933 -0.7559 -0.2153
 1848SOL    HW2 5634   2.167   0.225   0.327 -0.9421  1.0747 -1.5282
 1849SOL     OW 5635   3.830   1.612   0.827 -0.0224 -0.6561  0.5099
 1849SOL    HW1 5636   3.901   1.571   0.779  0.4417  0.6664  0.0248
 1849SOL    HW2 5637   3.813   1.694   0.781 -2.3750 -1.2645  0.1615
 1850SOL     OW 5638   1.237   3.639   2.909 -0.0700 -0.1814  0.0814
 1850SOL    HW1 5639   1.179   3.644   2.833 -1.7333 -1.4967  1.1898
 1850SOL    HW2 5640   1.299   3.570   2.887  0.9315  1.0091 -0.9792
 1851SOL     OW 5641   2.247   1.305   2.801  0.0243  0.5688  0.1365
 1851SOL    HW1 5642   2.224   1.213   2.809 -2.1204  1.1751  1.9389
 1851SOL    HW2 5643   2.189   1.339   2.733  0.5364  0.6905 -0.2492
 1852SOL     OW 5644   3.562   3.117   3.063 -0.0564  0.1953  0.0561
 1852SOL    HW1 5645   3.472   3.086   3.054 -0.1724  0.5614 -0.0545
 1852SOL    HW2 5646   3.584   3.151   2.977  1.1535 -2.3992 -0.7803
 1853SOL     OW 5647   3.403   1.794   2.008  0.2611 -0.2837 -0.6767
 1853SOL    HW1 5648   3.310   1.783   1.985  0.3983 -2.1114 -0.5257
 1853SOL    HW2 5649   3.414   1.741   2.087  1.6729 -1.0888 -1.3667
 1854SOL     OW 5650   2.680   0.694   2.457 -0.4233  0.0202  1.2379
 1854SOL    HW1 5651   2.627   0.615   2.445  1.8777 -1.5266  0.6228
 1854SOL    HW2 5652   2.755   0.665   2.509  1.7591  1.1274 -1.0876
 1855SOL     OW 5653   2.301   1.594   1.312 -0.0838 -0.1112 -0.3639
 1855SOL    HW1 5654   2.300   1.564   1.403 -1.2216 -0.3062 -0.4219
 1855SOL    HW2 5655   2.373   1.547   1.272  0.6795  0.2615  0.5242
 1856SOL     OW 5656   0.271   3.662   0.706  0.1166 -0.5741 -0.5458
 1856SOL    HW1 5657   0.309   3.643   0.620 -0.2780  1.5005 -1.2348
 1856SOL    HW2 5658   0.257   3.757   0.705 -0.2312 -0.5599  1.6868
 1857SOL     OW 5659   0.523   0.791   1.135  0.3469  0.4785  0.3352
 1857SOL    HW1 5660   0.501   0.704   1.101  1.6064  0.2753 -0.0126
 1857SOL    HW2 5661   0.460   0.849   1.094 -0.6286 -0.2835  0.7062
 1858SOL     OW 5662   2.229   2.943   0.843 -0.6182 -0.1300 -0.2521
 1858SOL    HW1 5663   2.160   2.957   0.779 -0.5450 -0.3598 -0.3793
 1858SOL    HW2 5664   2.193   2.977   0.925  0.0921  2.2324 -0.8389
 1859SOL     OW 5665   3.583   0.588   3.880 -0.2760 -0.4507  0.2451
 1859SOL    HW1 5666   3.653   0.533   3.846  0.2109  0.0708  0.3791
 1859SOL    HW2 5667   3.557   0.644   3.807  1.4506  1.3599  0.9146
 1860SOL     OW 5668   3.234   3.268   3.596 -0.3152  0.2372  0.5158
 1860SOL    HW1 5669   3.148   3.305   3.576 -0.3005  0.3418  0.6448
 1860SOL    HW2 5670   3.262   3.314   3.676 -1.0581 -1.2430  1.6822
 1861SOL     OW 5671   1.009   0.955   2.478 -0.2118 -0.2997 -0.6179
 1861SOL    HW1 5672   0.968   1.042   2.471  0.6435  0.0882 -0.9471
 1861SOL    HW2 5673   1.096   0.967   2.441 -0.3904 -1.5251 -1.4757
 1862SOL     OW 5674   3.073   2.151   0.169  0.2575 -0.4044  0.9198
 1862SOL    HW1 5675   3.022   2.211   0.224  0.7826 -0.2613  1.2511
 1862SOL    HW2 5676   3.063   2.065   0.212  1.0839 -0.2035  1.5407
 1863SOL     OW 5677   0.754   3.149   1.755  0.2329 -0.4796 -0.0061
 1863SOL    HW1 5678   0.834   3.096   1.750 -1.2333 -3.0999  1.6793
 1863SOL    HW2 5679   0.694   3.108   1.692 -0.5372 -0.0591  0.4389
 1864SOL     OW 5680   2.186   0.843   2.937 -0.0742 -0.1671 -0.6431
 1864SOL    HW1 5681   2.256   0.779   2.923 -1.2107 -1.6951  0.3717
 1864SOL    HW2 5682   2.164   0.874   2.849  1.9389  0.4843 -0.9765
 1865SOL     OW 5683   2.766   3.323   1.092 -0.0199  0.3308  0.2857
 1865SOL    HW1 5684   2.721   3.387   1.036 -0.6714 -1.4109 -1.2728
 1865SOL    HW2 5685   2.700   3.299   1.157  1.0692  3.1634  2.6627
 1866SOL     OW 5686   1.944   3.548   2.026  0.1762  0.8127  0.5596
 1866SOL    HW1 5687   2.033   3.561   1.993  0.3380 -0.0929  0.6227
 1866SOL    HW2 5688   1.906   3.482   1.969  1.2052 -2.4924  3.3554
 1867SOL     OW 5689   0.394   1.649   3.759  0.0599  0.2842 -0.9661
 1867SOL    HW1 5690   0.400   1.604   3.675 -0.1561  1.0738 -1.4168
 1867SOL    HW2 5691   0.341   1.592   3.814  0.8701 -0.6165 -1.1100
 1868SOL     OW 5692   3.155   3.397   3.191 -0.5831 -0.3731  0.0016
 1868SOL    HW1 5693   3.245   3.365   3.179 -0.0231  0.5194  1.5653
 1868SOL    HW2 5694   3.155   3.484   3.150 -0.4358  0.0371  0.8485
 1869SOL     OW 5695   3.655   2.782   3.795  0.3785  0.3713 -0.3022
 1869SOL    HW1 5696   3.652   2.799   3.701 -0.6148  0.4254 -0.2736
 1869SOL    HW2 5697   3.573   2.736   3.814  0.3869  0.6965  0.5973
 1870SOL     OW 5698   2.320   1.276   1.650 -0.2219  0.1667 -0.6040
 1870SOL    HW1 5699   2.275   1.202   1.608 -2.0456  1.2187 -0.6086
 1870SOL    HW2 5700   2.388   1.235   1.704 -2.5665 -1.7161  1.1187
 1871SOL     OW 5701   2.011   3.791   3.426 -0.4075  0.5012  0.0690
 1871SOL    HW1 5702   2.089   3.742   3.399 -1.2157 -1.0738  0.5211
 1871SOL    HW2 5703   2.041   3.882   3.428  1.9446 -0.1993  1.9441
 1872SOL     OW 5704   1.862   0.256   0.307 -0.0791 -0.5485  0.4238
 1872SOL    HW1 5705   1.890   0.329   0.362 -1.3591 -0.1124  0.5248
 1872SOL    HW2 5706   1.944   0.215   0.279  0.6525  0.5778  0.8241
 1873SOL     OW 5707   1.252   1.335   2.116 -0.4970 -0.4210 -0.2420
 1873SOL    HW1 5708   1.260   1.429   2.103 -0.3113 -0.1043  1.8134
 1873SOL    HW2 5709   1.334   1.299   2.081  0.8162  0.5533  1.6406
 1874SOL     OW 5710   2.299   3.714   2.450  0.1193  0.0748  0.2500
 1874SOL    HW1 5711   2.222   3.657   2.447  0.0350  0.2401 -1.0269
 1874SOL    HW2 5712   2.282   3.781   2.385  1.4744 -0.0481 -0.2610
 1875SOL     OW 5713   0.986   3.803   3.495  0.6331  0.1487  0.0433
 1875SOL    HW1 5714   1.013   3.726   3.544 -2.0499 -0.6802  0.4078
 1875SOL    HW2 5715   0.961   3.770   3.409 -2.2373  0.1735  0.7562
 1876SOL     OW 5716   0.918   1.230   2.966  0.3578  0.3340 -0.0560
 1876SOL    HW1 5717   0.961   1.290   3.027 -0.3946  0.6507  0.1753
 1876SOL    HW2 5718   0.962   1.244   2.883  0.6162  0.7478  0.1499
 1877SOL     OW 5719   0.421   0.171   1.590  0.7293  0.1386 -0.3019
 1877SOL    HW1 5720   0.493   0.214   1.637 -0.8633  1.5018  1.0535
 1877SOL    HW2 5721   0.454   0.084   1.570  2.4085  0.3701  1.1614
 1878SOL     OW 5722   0.223   1.160   1.583  0.4413 -0.2059  0.5582
 1878SOL    HW1 5723   0.292   1.108   1.542 -0.4581  0.5222 -2.0484
 1878SOL    HW2 5724   0.270   1.222   1.640  1.7823 -0.9328  0.2794
 1879SOL     OW 5725   3.086   3.016   2.898  0.2231  0.4002 -0.5554
 1879SOL    HW1 5726   3.136   3.020   2.980 -2.2600 -0.0732  1.0735
 1879SOL    HW2 5727   3.131   3.078   2.840  2.7722 -0.1268  0.7018
 1880SOL     OW 5728   3.780   3.822   1.241  0.6409 -0.3093 -0.0747
 1880SOL    HW1 5729   3.695   3.855   1.214  1.4033  1.8976  0.0349
 1880SOL    HW2 5730   3.765   3.786   1.328 -0.1379  0.2738  0.0414
 1881SOL     OW 5731   0.296   3.157   1.327  0.2754 -0.9028 -0.1489
 1881SOL    HW1 5732   0.217   3.127   1.281 -0.0882  0.0714 -0.1888
 1881SOL    HW2 5733   0.307   3.248   1.298  1.4040 -1.0220 -0.1205
 1882SOL     OW 5734   1.675   1.954   0.791  0.4224 -0.3004  0.2932
 1882SOL    HW1 5735   1.737   1.956   0.863 -0.0965  2.5739  0.7660
 1882SOL    HW2 5736   1.593   1.923   0.830  0.3980  0.3052  0.7362
 1883SOL     OW 5737   1.671   2.898   2.927  0.1201 -0.3696  0.1063
 1883SOL    HW1 5738   1.745   2.856   2.884 -0.5957 -0.1289 -1.4175
 1883SOL    HW2 5739   1.600   2.834   2.923 -0.6356  0.5024 -1.2001
 1884SOL     OW 5740   3.276   2.564   0.616  0.1736  0.6223 -0.0140
 1884SOL    HW1 5741   3.335   2.631   0.650 -0.7657  1.9457 -0.8971
 1884SOL    HW2 5742   3.235   2.604   0.540  0.3303 -1.3316 -1.2046
 1885SOL     OW 5743   0.052   2.383   1.366  0.2490 -0.9093  0.1899
 1885SOL    HW1 5744   0.050   2.441   1.442  0.4448 -0.5212 -0.1029
 1885SOL    HW2 5745   0.096   2.433   1.298 -0.2941 -1.1078 -0.3134
 1886SOL     OW 5746   2.672   3.027   0.932 -0.1588 -0.1362  0.2753
 1886SOL    HW1 5747   2.603   3.085   0.899 -0.7882  0.8301  3.0065
 1886SOL    HW2 5748   2.748   3.047   0.877 -0.9212  1.8375 -0.1550
 1887SOL     OW 5749   2.444   2.740   0.855  0.3554 -0.0058  0.5723
 1887SOL    HW1 5750   2.369   2.792   0.825  0.8718  1.0373  1.0465
 1887SOL    HW2 5751   2.512   2.755   0.790 -0.6750 -3.2719 -1.5161
 1888SOL     OW 5752   0.135   2.174   0.640  0.1516  0.6826 -0.5395
 1888SOL    HW1 5753   0.049   2.172   0.683  1.0212  0.5677  1.2550
 1888SOL    HW2 5754   0.162   2.082   0.634 -0.2907  0.6126 -2.1302
 1889SOL     OW 5755   2.059   2.722   0.156  0.1583 -0.4700  0.0888
 1889SOL    HW1 5756   2.133   2.712   0.096 -0.9198  2.6441 -1.9980
 1889SOL    HW2 5757   1.992   2.663   0.122  0.2790 -0.2562 -0.5289
 1890SOL     OW 5758   0.566   1.033   2.484 -0.0735  0.0347  0.3111
 1890SOL    HW1 5759   0.519   1.093   2.543 -2.3532 -0.7541 -0.5946
 1890SOL    HW2 5760   0.615   0.975   2.543 -0.9498  0.3212  1.3642
 1891SOL     OW 5761   2.673   3.293   3.023 -0.2187  0.3678 -0.6246
 1891SOL    HW1 5762   2.663   3.387   3.008  0.9926  0.5731 -0.3297
 1891SOL    HW2 5763   2.765   3.284   3.050 -0.6393 -0.7432  0.5359
 1892SOL     OW 5764   2.418   1.228   1.008  0.9081 -0.1346  0.0479
 1892SOL    HW1 5765   2.384   1.276   0.932 -0.6425 -1.0072  0.1459
 1892SOL    HW2 5766   2.470   1.157   0.970  1.4014  0.3166 -0.1398
 1893SOL     OW 5767   2.983   3.319   1.294  0.2635  0.0275  0.9988
 1893SOL    HW1 5768   2.976   3.295   1.202  0.5690  0.3157  0.8990
 1893SOL    HW2 5769   2.938   3.403   1.302  0.4752  0.1395  1.0535
 1894SOL     OW 5770   0.078   1.133   2.906 -0.2503  0.0239 -0.1341
 1894SOL    HW1 5771   0.149   1.091   2.953  0.2484  0.0376 -0.8526
 1894SOL    HW2 5772   0.105   1.130   2.814 -0.9032  0.5541 -0.3540
 1895SOL     OW 5773   1.453   2.433   3.426 -0.2342  0.2839 -0.4094
 1895SOL    HW1 5774   1.494   2.517   3.405  0.7028 -0.0323  0.1234
 1895SOL    HW2 5775   1.438   2.436   3.520  0.4352 -0.4043 -0.2660
 1896SOL     OW 5776   0.069   0.716   1.980  0.0734 -0.4258  0.5742
 1896SOL    HW1 5777  -0.011   0.727   2.031  0.0647 -0.7280  0.6313
 1896SOL    HW2 5778   0.079   0.621   1.972 -0.6959 -0.4133 -1.1971
 1897SOL     OW 5779   3.329   1.453   3.690  0.1320 -0.0913  0.1498
 1897SOL    HW1 5780   3.315   1.548   3.688 -0.2596 -0.1578 -0.5948
 1897SOL    HW2 5781   3.313   1.425   3.600 -2.7351 -1.2740  0.9349
 1898SOL     OW 5782   1.633   0.717   0.737 -0.2075  0.5182  0.1759
 1898SOL    HW1 5783   1.582   0.785   0.782 -0.7848 -0.5246  1.1374
 1898SOL    HW2 5784   1.626   0.740   0.644 -0.0375  2.0022  0.5094
 1899SOL     OW 5785   1.513   3.827   3.322 -0.1103 -0.6811  0.0435
 1899SOL    HW1 5786   1.456   3.810   3.247 -0.1881  0.9215 -0.2807
 1899SOL    HW2 5787   1.515   3.743   3.369  0.1060 -1.7973 -1.8320
 1900SOL     OW 5788   2.965   2.979   0.928 -0.2884  0.1807  0.1638
 1900SOL    HW1 5789   3.029   2.909   0.912  1.5615  1.9116 -0.4912
 1900SOL    HW2 5790   2.951   3.018   0.841 -2.1659 -0.0684  0.3246
 1901SOL     OW 5791   0.135   3.485   2.804 -0.3841  0.2051 -0.5045
 1901SOL    HW1 5792   0.093   3.432   2.737 -0.6525  0.9860 -0.9574
 1901SOL    HW2 5793   0.110   3.442   2.887 -1.2498  0.0809 -0.8163
 1902SOL     OW 5794   1.147   1.914   3.244  0.1625 -0.5223 -0.0078
 1902SOL    HW1 5795   1.159   1.980   3.312 -0.2722 -1.7549  1.3114
 1902SOL    HW2 5796   1.220   1.929   3.183  1.1432 -0.0006  1.2411
 1903SOL     OW 5797   1.298   3.525   0.574 -0.1560  0.4337  0.1829
 1903SOL    HW1 5798   1.340   3.601   0.534 -0.9975  0.6585 -0.2996
 1903SOL    HW2 5799   1.361   3.494   0.639  1.1723  0.1973 -1.1524
 1904SOL     OW 5800   0.944   2.615   3.262 -0.2732  0.2900 -0.0090
 1904SOL    HW1 5801   1.008   2.652   3.200  1.0410 -0.2733  0.9620
 1904SOL    HW2 5802   0.998   2.574   3.330 -1.6503  1.5618  1.9425
 1905SOL     OW 5803   1.828   3.064   3.139  0.0948 -0.0201  0.1396
 1905SOL    HW1 5804   1.886   3.123   3.187 -2.5276  1.3106  1.8529
 1905SOL    HW2 5805   1.807   3.112   3.058  0.8010 -0.2320 -0.1832
 1906SOL     OW 5806   1.613   3.056   1.916  0.3505 -0.3086  0.9673
 1906SOL    HW1 5807   1.684   3.071   1.854  0.4870 -1.1392  0.9127
 1906SOL    HW2 5808   1.560   2.988   1.875 -0.3825  0.1780  1.0863
 1907SOL     OW 5809   2.869   0.130   3.567 -0.3255 -0.5820 -0.2695
 1907SOL    HW1 5810   2.888   0.136   3.660  1.0984  0.6613 -0.6135
 1907SOL    HW2 5811   2.801   0.196   3.552  1.3426  1.1352 -0.5504
 1908SOL     OW 5812   3.558   3.289   1.718 -0.7776 -0.3918  0.0554
 1908SOL    HW1 5813   3.605   3.315   1.638 -0.6829 -1.5334 -0.2779
 1908SOL    HW2 5814   3.577   3.359   1.780  0.0368 -0.0169 -0.5861
 1909SOL     OW 5815   2.888   1.030   0.027 -0.4093 -0.6265 -0.6415
 1909SOL    HW1 5816   2.949   1.100   0.049  0.8603 -1.3971 -1.5698
 1909SOL    HW2 5817   2.803   1.062   0.056  0.1271  1.3139 -1.0790
 1910SOL     OW 5818   1.371   1.881   1.758  0.5669  0.6275  0.1982
 1910SOL    HW1 5819   1.460   1.868   1.792  0.5494  1.4174  0.5554
 1910SOL    HW2 5820   1.360   1.976   1.755 -0.7303  0.5433  1.4059
 1911SOL     OW 5821   1.857   3.203   3.671  0.3967  0.1572 -0.0887
 1911SOL    HW1 5822   1.899   3.269   3.616  1.4498 -0.4732 -0.0540
 1911SOL    HW2 5823   1.924   3.178   3.734 -0.3284 -0.2065  0.5480
 1912SOL     OW 5824   2.569   2.609   1.566  0.0078 -0.0005 -0.4893
 1912SOL    HW1 5825   2.648   2.570   1.604 -0.2068  0.8991  0.9691
 1912SOL    HW2 5826   2.556   2.690   1.615  0.5106  2.0592 -3.4836
 1913SOL     OW 5827   3.019   1.379   2.173  0.0224 -0.7343 -0.3287
 1913SOL    HW1 5828   3.000   1.350   2.083  0.6079 -0.4579 -0.5471
 1913SOL    HW2 5829   3.012   1.300   2.226 -3.2523 -0.4486 -0.1153
 1914SOL     OW 5830   0.915   1.506   0.733 -0.1081 -0.1277  0.3252
 1914SOL    HW1 5831   0.885   1.450   0.805 -0.3749 -0.5950 -0.1404
 1914SOL    HW2 5832   0.943   1.445   0.666 -1.1715  0.2725 -0.5196
 1915SOL     OW 5833   0.073   1.666   1.345 -0.3735  0.3899 -0.1461
 1915SOL    HW1 5834   0.132   1.691   1.274 -0.4538 -0.9566 -0.7174
 1915SOL    HW2 5835   0.129   1.624   1.410 -0.5066  0.2914 -0.0940
 1916SOL     OW 5836   0.842   0.385   2.967 -0.2364  0.0632 -0.6340
 1916SOL    HW1 5837   0.812   0.475   2.957 -0.4996  0.0397 -0.0873
 1916SOL    HW2 5838   0.778   0.344   3.026  1.9453  0.5972  2.3122
 1917SOL     OW 5839   3.784   2.049   0.108 -0.2475  0.3928 -0.0764
 1917SOL    HW1 5840   3.722   2.039   0.036  0.1045  0.5182 -0.3977
 1917SOL    HW2 5841   3.849   2.112   0.076 -0.3938  0.8674  0.5532
 1918SOL     OW 5842   1.114   0.601   0.498 -0.0036 -0.4626 -0.2802
 1918SOL    HW1 5843   1.148   0.661   0.432  0.2185  0.7493  0.8789
 1918SOL    HW2 5844   1.097   0.519   0.451  0.4353  0.2626 -1.7467
 1919SOL     OW 5845   1.897   2.592   2.987 -0.1709 -0.6160 -0.4676
 1919SOL    HW1 5846   1.974   2.562   2.939 -0.4475  0.5917 -1.7461
 1919SOL    HW2 5847   1.917   2.683   3.009 -1.3420 -0.1866 -1.1034
 1920SOL     OW 5848   0.728   2.435   2.925 -0.3271 -0.2666 -0.6345
 1920SOL    HW1 5849   0.752   2.344   2.941  0.8069 -0.0115 -0.7484
 1920SOL    HW2 5850   0.644   2.447   2.969  1.0862 -0.4698  2.3500
 1921SOL     OW 5851   1.120   0.351   2.165  0.2463  0.4712  0.1581
 1921SOL    HW1 5852   1.126   0.393   2.080 -0.4871 -1.2656 -0.8017
 1921SOL    HW2 5853   1.074   0.415   2.220  0.2641  1.4094 -0.8901
 1922SOL     OW 5854   1.922   3.510   3.515 -0.6741 -0.0947 -0.1323
 1922SOL    HW1 5855   1.988   3.551   3.571  0.5226  0.6538 -1.9829
 1922SOL    HW2 5856   1.849   3.572   3.516  0.2339  1.0560 -1.1163
 1923SOL     OW 5857   2.725   1.948   0.686  0.0109 -0.1174  0.2654
 1923SOL    HW1 5858   2.711   1.886   0.615  0.9336  1.1173 -1.0531
 1923SOL    HW2 5859   2.653   2.011   0.678  0.1088  0.0170  0.4276
 1924SOL     OW 5860   2.596   1.173   0.686 -0.1729  0.3524  0.0010
 1924SOL    HW1 5861   2.635   1.129   0.762 -0.7342  0.3806  0.3102
 1924SOL    HW2 5862   2.670   1.187   0.626  0.3317  0.5810  0.6607
 1925SOL     OW 5863   0.289   3.720   1.476  0.1589 -0.4639  0.0715
 1925SOL    HW1 5864   0.261   3.811   1.464  1.1007 -0.1808 -0.0512
 1925SOL    HW2 5865   0.385   3.724   1.477  0.2107 -1.2728  1.4882
 1926SOL     OW 5866   2.163   3.669   3.158 -0.1394  0.2400 -0.4667
 1926SOL    HW1 5867   2.102   3.692   3.087 -1.2079 -2.5352 -0.5706
 1926SOL    HW2 5868   2.249   3.690   3.123 -0.7312  0.1174 -2.1014
 1927SOL     OW 5869   0.737   1.302   0.840  0.2330  0.0802  0.4335
 1927SOL    HW1 5870   0.664   1.320   0.781 -0.9591  0.8113  2.0517
 1927SOL    HW2 5871   0.707   1.227   0.892  0.9455 -0.0788  0.6283
 1928SOL     OW 5872   0.769   1.589   3.178  0.3004  0.0841 -0.0323
 1928SOL    HW1 5873   0.704   1.597   3.108  0.6465  0.3956 -0.3224
 1928SOL    HW2 5874   0.799   1.679   3.193  0.3871 -0.0090  0.3641
 1929SOL     OW 5875   1.693   1.915   1.092  0.1352 -0.4868 -0.3527
 1929SOL    HW1 5876   1.618   1.856   1.106 -0.3209 -0.1718 -1.3342
 1929SOL    HW2 5877   1.770   1.860   1.107 -0.2910 -1.1508 -0.5316
 1930SOL     OW 5878   3.390   1.981   2.611 -0.3745 -0.1904  0.3909
 1930SOL    HW1 5879   3.304   2.022   2.605 -0.0727  0.5607  0.9803
 1930SOL    HW2 5880   3.448   2.052   2.638  0.5106 -0.5939 -0.4240
 1931SOL     OW 5881   0.965   2.857   0.201  0.2027  0.4273  0.7627
 1931SOL    HW1 5882   1.009   2.773   0.192 -1.6521 -0.3630 -2.0702
 1931SOL    HW2 5883   0.926   2.855   0.288 -0.1710 -1.8594  0.5893
 1932SOL     OW 5884   1.627   3.391   0.371  0.2387 -0.0549 -0.2803
 1932SOL    HW1 5885   1.553   3.447   0.346  1.0953  1.3174  0.1532
 1932SOL    HW2 5886   1.620   3.384   0.466 -0.7742 -2.0668 -0.4346
 1933SOL     OW 5887   3.704   0.607   0.646  0.2109 -0.1891  0.3108
 1933SOL    HW1 5888   3.657   0.642   0.571 -0.7230 -0.8838  0.5540
 1933SOL    HW2 5889   3.749   0.529   0.612  1.6560  0.7508 -0.0450
 1934SOL     OW 5890   2.111   3.225   2.788 -0.0953 -0.2573 -0.8944
 1934SOL    HW1 5891   2.015   3.226   2.785 -0.0926  1.8522 -2.5979
 1934SOL    HW2 5892   2.137   3.187   2.704  0.5673 -0.0372 -0.7924
 1935SOL     OW 5893   2.664   2.054   2.919 -0.0280 -0.3091 -0.1266
 1935SOL    HW1 5894   2.757   2.035   2.932  0.2578 -0.2766 -1.9029
 1935SOL    HW2 5895   2.661   2.106   2.839 -1.6196 -0.6628 -0.3337
 1936SOL     OW 5896   2.234   2.773   3.002  0.2025 -0.3471  0.4802
 1936SOL    HW1 5897   2.147   2.803   3.029 -1.9738 -4.8151 -0.5926
 1936SOL    HW2 5898   2.280   2.758   3.084 -0.1383  1.5999  1.0886
 1937SOL     OW 5899   0.874   1.845   3.165 -0.0850 -0.0489  0.6080
 1937SOL    HW1 5900   0.956   1.882   3.198 -0.1663  1.0910 -0.3919
 1937SOL    HW2 5901   0.891   1.827   3.073 -1.0115  0.4208  0.3239
 1938NA      NA 5902   3.682   2.925   3.116 -0.3869 -0.5862 -0.5575
 1939NA      NA 5903   3.106   2.855   1.522  0.1000 -0.6509  0.2562
 1940NA      NA 5904   3.708   2.151   0.338 -0.4030  0.2495  0.1023
 1941NA      NA 5905   0.308   2.050   2.154  0.6094  0.3629 -0.2240
 1942NA      NA 5906   1.043   1.245   2.006  0.2447  0.3319 -0.1602
 1943NA      NA 5907   1.139   0.456   3.245 -0.1833 -0.6700  0.4377
 1944NA      NA 5908   2.751   1.535   3.133  0.0014  0.0012  0.2565
 1945CL      CL 5909   2.892   3.087   0.654 -0.2208 -0.3226  0.5221
 1946CL      CL 5910   3.761   2.019   3.187 -0.4465  0.0649  0.1057
 1947CL      CL 5911   0.819   3.751   0.414  0.0472  0.6464  0.3589
 1948CL      CL 5912   1.512   2.093   2.539  0.1243  0.4079  0.0172
 1949CL      CL 5913   1.871   3.869   1.322  0.1463 -0.1189 -0.1398
 1950CL      CL 5914   3.611   1.965   0.909  0.5753 -0.4352  0.4296
   3.88677   3.88677   3.88677
