;
;	File 'dwvipp.top' was generated
;	By user: unknown (1102)
;	On host: CHEM-pekoe
;	At date: Wed Nov 10 12:58:42 2021

;
;	This is a standalone topology file
;
;	Created by:
;	                 :-) GROMACS - gmx pdb2gmx, VERSION 5.1.4 (-:
;	
;	Executable:   /home/kuczera/prog/gromacs-5.1.4/bin/gmx
;	Data prefix:  /home/kuczera/prog/gromacs-5.1.4
;	Command line:
;	  gmx pdb2gmx -inter -ignh -f dwvipp_chm.pdb -p dwvipp.top -o dwvipp.gro -ff charmm36-nov2018 -water tip3p
;	Force field was read from the standard GROMACS share directory.
;

; Include forcefield parameters
#include "charmm36-nov2018.ff/forcefield.itp"

[ moleculetype ]
; Name            nrexcl
Protein             3

[ atoms ]
;   nr       type  resnr residue  atom   cgnr     charge       mass  typeB    chargeB      massB
; residue   1 ACE rtp ACE  q  0.0
     1        CT3      1    ACE    CH3      1      -0.27     12.011   ; qtot -0.27
     2        HA3      1    ACE   HH31      1       0.09      1.008   ; qtot -0.18
     3        HA3      1    ACE   HH32      1       0.09      1.008   ; qtot -0.09
     4        HA3      1    ACE   HH33      1       0.09      1.008   ; qtot 0
     5          C      1    ACE      C      2       0.51     12.011   ; qtot 0.51
     6          O      1    ACE      O      2      -0.51     15.999   ; qtot 0
; residue   1 ASP rtp ASP  q -1.0
     7        NH1      1    ASP      N      3      -0.47     14.007   ; qtot -0.47
     8          H      1    ASP     HN      4       0.31      1.008   ; qtot -0.16
     9        CT1      1    ASP     CA      5       0.07     12.011   ; qtot -0.09
    10        HB1      1    ASP     HA      6       0.09      1.008   ; qtot 0
    11       CT2A      1    ASP     CB      7      -0.28     12.011   ; qtot -0.28
    12        HA2      1    ASP    HB1      8       0.09      1.008   ; qtot -0.19
    13        HA2      1    ASP    HB2      9       0.09      1.008   ; qtot -0.1
    14         CC      1    ASP     CG     10       0.62     12.011   ; qtot 0.52
    15         OC      1    ASP    OD1     11      -0.76     15.999   ; qtot -0.24
    16         OC      1    ASP    OD2     12      -0.76     15.999   ; qtot -1
    17          C      1    ASP      C     13       0.51     12.011   ; qtot -0.49
    18          O      1    ASP      O     14      -0.51     15.999   ; qtot -1
; residue   2 TRP rtp TRP  q  0.0
    19        NH1      2    TRP      N     15      -0.47     14.007   ; qtot -1.47
    20          H      2    TRP     HN     16       0.31      1.008   ; qtot -1.16
    21        CT1      2    TRP     CA     17       0.07     12.011   ; qtot -1.09
    22        HB1      2    TRP     HA     18       0.09      1.008   ; qtot -1
    23        CT2      2    TRP     CB     19      -0.18     12.011   ; qtot -1.18
    24        HA2      2    TRP    HB1     20       0.09      1.008   ; qtot -1.09
    25        HA2      2    TRP    HB2     21       0.09      1.008   ; qtot -1
    26         CY      2    TRP     CG     22      -0.03     12.011   ; qtot -1.03
    27         CA      2    TRP    CD1     23      -0.15     12.011   ; qtot -1.18
    28         HP      2    TRP    HD1     24       0.22      1.008   ; qtot -0.96
    29         NY      2    TRP    NE1     25      -0.51     14.007   ; qtot -1.47
    30          H      2    TRP    HE1     26       0.37      1.008   ; qtot -1.1
    31        CPT      2    TRP    CE2     27       0.24     12.011   ; qtot -0.86
    32        CPT      2    TRP    CD2     28       0.11     12.011   ; qtot -0.75
    33        CAI      2    TRP    CE3     29      -0.25     12.011   ; qtot -1
    34         HP      2    TRP    HE3     30       0.17      1.008   ; qtot -0.83
    35         CA      2    TRP    CZ3     31       -0.2     12.011   ; qtot -1.03
    36         HP      2    TRP    HZ3     32       0.14      1.008   ; qtot -0.89
    37        CAI      2    TRP    CZ2     33      -0.27     12.011   ; qtot -1.16
    38         HP      2    TRP    HZ2     34       0.16      1.008   ; qtot -1
    39         CA      2    TRP    CH2     35      -0.14     12.011   ; qtot -1.14
    40         HP      2    TRP    HH2     36       0.14      1.008   ; qtot -1
    41          C      2    TRP      C     37       0.51     12.011   ; qtot -0.49
    42          O      2    TRP      O     38      -0.51     15.999   ; qtot -1
; residue   3 VAL rtp VAL  q  0.0
    43        NH1      3    VAL      N     39      -0.47     14.007   ; qtot -1.47
    44          H      3    VAL     HN     40       0.31      1.008   ; qtot -1.16
    45        CT1      3    VAL     CA     41       0.07     12.011   ; qtot -1.09
    46        HB1      3    VAL     HA     42       0.09      1.008   ; qtot -1
    47        CT1      3    VAL     CB     43      -0.09     12.011   ; qtot -1.09
    48        HA1      3    VAL     HB     44       0.09      1.008   ; qtot -1
    49        CT3      3    VAL    CG1     45      -0.27     12.011   ; qtot -1.27
    50        HA3      3    VAL   HG11     46       0.09      1.008   ; qtot -1.18
    51        HA3      3    VAL   HG12     47       0.09      1.008   ; qtot -1.09
    52        HA3      3    VAL   HG13     48       0.09      1.008   ; qtot -1
    53        CT3      3    VAL    CG2     49      -0.27     12.011   ; qtot -1.27
    54        HA3      3    VAL   HG21     50       0.09      1.008   ; qtot -1.18
    55        HA3      3    VAL   HG22     51       0.09      1.008   ; qtot -1.09
    56        HA3      3    VAL   HG23     52       0.09      1.008   ; qtot -1
    57          C      3    VAL      C     53       0.51     12.011   ; qtot -0.49
    58          O      3    VAL      O     54      -0.51     15.999   ; qtot -1
; residue   4 ILE rtp ILE  q  0.0
    59        NH1      4    ILE      N     55      -0.47     14.007   ; qtot -1.47
    60          H      4    ILE     HN     56       0.31      1.008   ; qtot -1.16
    61        CT1      4    ILE     CA     57       0.07     12.011   ; qtot -1.09
    62        HB1      4    ILE     HA     58       0.09      1.008   ; qtot -1
    63        CT1      4    ILE     CB     59      -0.09     12.011   ; qtot -1.09
    64        HA1      4    ILE     HB     60       0.09      1.008   ; qtot -1
    65        CT3      4    ILE    CG2     61      -0.27     12.011   ; qtot -1.27
    66        HA3      4    ILE   HG21     62       0.09      1.008   ; qtot -1.18
    67        HA3      4    ILE   HG22     63       0.09      1.008   ; qtot -1.09
    68        HA3      4    ILE   HG23     64       0.09      1.008   ; qtot -1
    69        CT2      4    ILE    CG1     65      -0.18     12.011   ; qtot -1.18
    70        HA2      4    ILE   HG11     66       0.09      1.008   ; qtot -1.09
    71        HA2      4    ILE   HG12     67       0.09      1.008   ; qtot -1
    72        CT3      4    ILE     CD     68      -0.27     12.011   ; qtot -1.27
    73        HA3      4    ILE    HD1     69       0.09      1.008   ; qtot -1.18
    74        HA3      4    ILE    HD2     70       0.09      1.008   ; qtot -1.09
    75        HA3      4    ILE    HD3     71       0.09      1.008   ; qtot -1
    76          C      4    ILE      C     72       0.51     12.011   ; qtot -0.49
    77          O      4    ILE      O     73      -0.51     15.999   ; qtot -1
; residue   5 PRO rtp PRO  q  0.0
    78          N      5    PRO      N     74      -0.29     14.007   ; qtot -1.29
    79        CP3      5    PRO     CD     75          0     12.011   ; qtot -1.29
    80        HA2      5    PRO    HD1     76       0.09      1.008   ; qtot -1.2
    81        HA2      5    PRO    HD2     77       0.09      1.008   ; qtot -1.11
    82        CP1      5    PRO     CA     78       0.02     12.011   ; qtot -1.09
    83        HB1      5    PRO     HA     79       0.09      1.008   ; qtot -1
    84        CP2      5    PRO     CB     80      -0.18     12.011   ; qtot -1.18
    85        HA2      5    PRO    HB1     81       0.09      1.008   ; qtot -1.09
    86        HA2      5    PRO    HB2     82       0.09      1.008   ; qtot -1
    87        CP2      5    PRO     CG     83      -0.18     12.011   ; qtot -1.18
    88        HA2      5    PRO    HG1     84       0.09      1.008   ; qtot -1.09
    89        HA2      5    PRO    HG2     85       0.09      1.008   ; qtot -1
    90          C      5    PRO      C     86       0.51     12.011   ; qtot -0.49
    91          O      5    PRO      O     87      -0.51     15.999   ; qtot -1
; residue   6 PRO rtp PRO  q  0.0
    92          N      6    PRO      N     88      -0.29     14.007   ; qtot -1.29
    93        CP3      6    PRO     CD     89          0     12.011   ; qtot -1.29
    94        HA2      6    PRO    HD1     90       0.09      1.008   ; qtot -1.2
    95        HA2      6    PRO    HD2     91       0.09      1.008   ; qtot -1.11
    96        CP1      6    PRO     CA     92       0.02     12.011   ; qtot -1.09
    97        HB1      6    PRO     HA     93       0.09      1.008   ; qtot -1
    98        CP2      6    PRO     CB     94      -0.18     12.011   ; qtot -1.18
    99        HA2      6    PRO    HB1     95       0.09      1.008   ; qtot -1.09
   100        HA2      6    PRO    HB2     96       0.09      1.008   ; qtot -1
   101        CP2      6    PRO     CG     97      -0.18     12.011   ; qtot -1.18
   102        HA2      6    PRO    HG1     98       0.09      1.008   ; qtot -1.09
   103        HA2      6    PRO    HG2     99       0.09      1.008   ; qtot -1
   104         CC      6    PRO      C    100       0.55     12.011   ; qtot -0.45
   105        NH2      6    PRO     NT    101      -0.62    14.0027   ; qtot -1.07
   106          H      6    PRO    HT1    102        0.3      1.008   ; qtot -0.77
   107          H      6    PRO    HT2    103       0.32      1.008   ; qtot -0.45
   108          O      6    PRO      O    104      -0.55    15.9994   ; qtot -1

[ bonds ]
;  ai    aj funct            c0            c1            c2            c3
    1     2     1 
    1     3     1 
    1     4     1 
    1     5     1 
    5     6     1 
    5     7     1 
    7     8     1 
    7     9     1 
    9    10     1 
    9    11     1 
    9    17     1 
   11    12     1 
   11    13     1 
   11    14     1 
   14    15     1 
   14    16     1 
   17    18     1 
   17    19     1 
   19    20     1 
   19    21     1 
   21    22     1 
   21    23     1 
   21    41     1 
   23    24     1 
   23    25     1 
   23    26     1 
   26    27     1 
   26    32     1 
   27    28     1 
   27    29     1 
   29    30     1 
   29    31     1 
   31    32     1 
   31    37     1 
   32    33     1 
   33    34     1 
   33    35     1 
   35    36     1 
   35    39     1 
   37    38     1 
   37    39     1 
   39    40     1 
   41    42     1 
   41    43     1 
   43    44     1 
   43    45     1 
   45    46     1 
   45    47     1 
   45    57     1 
   47    48     1 
   47    49     1 
   47    53     1 
   49    50     1 
   49    51     1 
   49    52     1 
   53    54     1 
   53    55     1 
   53    56     1 
   57    58     1 
   57    59     1 
   59    60     1 
   59    61     1 
   61    62     1 
   61    63     1 
   61    76     1 
   63    64     1 
   63    65     1 
   63    69     1 
   65    66     1 
   65    67     1 
   65    68     1 
   69    70     1 
   69    71     1 
   69    72     1 
   72    73     1 
   72    74     1 
   72    75     1 
   76    77     1 
   76    78     1 
   78    79     1 
   78    82     1 
   79    80     1 
   79    81     1 
   79    87     1 
   82    83     1 
   82    84     1 
   82    90     1 
   84    85     1 
   84    86     1 
   84    87     1 
   87    88     1 
   87    89     1 
   90    91     1 
   90    92     1 
   92    93     1 
   92    96     1 
   93    94     1 
   93    95     1 
   93   101     1 
   96    97     1 
   96    98     1 
   96   104     1 
   98    99     1 
   98   100     1 
   98   101     1 
  101   102     1 
  101   103     1 
  104   105     1 
  104   108     1 
  105   106     1 
  105   107     1 

[ pairs ]
;  ai    aj funct            c0            c1            c2            c3
    1     8     1 
    1     9     1 
    2     6     1 
    2     7     1 
    3     6     1 
    3     7     1 
    4     6     1 
    4     7     1 
    5    10     1 
    5    11     1 
    5    17     1 
    6     8     1 
    6     9     1 
    7    12     1 
    7    13     1 
    7    14     1 
    7    18     1 
    7    19     1 
    8    10     1 
    8    11     1 
    8    17     1 
    9    15     1 
    9    16     1 
    9    20     1 
    9    21     1 
   10    12     1 
   10    13     1 
   10    14     1 
   10    18     1 
   10    19     1 
   11    18     1 
   11    19     1 
   12    15     1 
   12    16     1 
   12    17     1 
   13    15     1 
   13    16     1 
   13    17     1 
   14    17     1 
   17    22     1 
   17    23     1 
   17    41     1 
   18    20     1 
   18    21     1 
   19    24     1 
   19    25     1 
   19    26     1 
   19    42     1 
   19    43     1 
   20    22     1 
   20    23     1 
   20    41     1 
   21    27     1 
   21    32     1 
   21    44     1 
   21    45     1 
   22    24     1 
   22    25     1 
   22    26     1 
   22    42     1 
   22    43     1 
   23    28     1 
   23    29     1 
   23    31     1 
   23    33     1 
   23    42     1 
   23    43     1 
   24    27     1 
   24    32     1 
   24    41     1 
   25    27     1 
   25    32     1 
   25    41     1 
   26    30     1 
   26    34     1 
   26    35     1 
   26    37     1 
   26    41     1 
   27    33     1 
   27    37     1 
   28    30     1 
   28    31     1 
   28    32     1 
   29    33     1 
   29    38     1 
   29    39     1 
   30    32     1 
   30    37     1 
   31    34     1 
   31    35     1 
   31    40     1 
   32    36     1 
   32    38     1 
   32    39     1 
   33    37     1 
   33    40     1 
   34    36     1 
   34    39     1 
   35    38     1 
   36    37     1 
   36    40     1 
   38    40     1 
   41    46     1 
   41    47     1 
   41    57     1 
   42    44     1 
   42    45     1 
   43    48     1 
   43    49     1 
   43    53     1 
   43    58     1 
   43    59     1 
   44    46     1 
   44    47     1 
   44    57     1 
   45    50     1 
   45    51     1 
   45    52     1 
   45    54     1 
   45    55     1 
   45    56     1 
   45    60     1 
   45    61     1 
   46    48     1 
   46    49     1 
   46    53     1 
   46    58     1 
   46    59     1 
   47    58     1 
   47    59     1 
   48    50     1 
   48    51     1 
   48    52     1 
   48    54     1 
   48    55     1 
   48    56     1 
   48    57     1 
   49    54     1 
   49    55     1 
   49    56     1 
   49    57     1 
   50    53     1 
   51    53     1 
   52    53     1 
   53    57     1 
   57    62     1 
   57    63     1 
   57    76     1 
   58    60     1 
   58    61     1 
   59    64     1 
   59    65     1 
   59    69     1 
   59    77     1 
   59    78     1 
   60    62     1 
   60    63     1 
   60    76     1 
   61    66     1 
   61    67     1 
   61    68     1 
   61    70     1 
   61    71     1 
   61    72     1 
   61    79     1 
   61    82     1 
   62    64     1 
   62    65     1 
   62    69     1 
   62    77     1 
   62    78     1 
   63    73     1 
   63    74     1 
   63    75     1 
   63    77     1 
   63    78     1 
   64    66     1 
   64    67     1 
   64    68     1 
   64    70     1 
   64    71     1 
   64    72     1 
   64    76     1 
   65    70     1 
   65    71     1 
   65    72     1 
   65    76     1 
   66    69     1 
   67    69     1 
   68    69     1 
   69    76     1 
   70    73     1 
   70    74     1 
   70    75     1 
   71    73     1 
   71    74     1 
   71    75     1 
   76    80     1 
   76    81     1 
   76    83     1 
   76    84     1 
   76    87     1 
   76    90     1 
   77    79     1 
   77    82     1 
   78    85     1 
   78    86     1 
   78    88     1 
   78    89     1 
   78    91     1 
   78    92     1 
   79    83     1 
   79    85     1 
   79    86     1 
   79    90     1 
   80    82     1 
   80    84     1 
   80    88     1 
   80    89     1 
   81    82     1 
   81    84     1 
   81    88     1 
   81    89     1 
   82    88     1 
   82    89     1 
   82    93     1 
   82    96     1 
   83    85     1 
   83    86     1 
   83    87     1 
   83    91     1 
   83    92     1 
   84    91     1 
   84    92     1 
   85    88     1 
   85    89     1 
   85    90     1 
   86    88     1 
   86    89     1 
   86    90     1 
   87    90     1 
   90    94     1 
   90    95     1 
   90    97     1 
   90    98     1 
   90   101     1 
   90   104     1 
   91    93     1 
   91    96     1 
   92    99     1 
   92   100     1 
   92   102     1 
   92   103     1 
   92   105     1 
   92   108     1 
   93    97     1 
   93    99     1 
   93   100     1 
   93   104     1 
   94    96     1 
   94    98     1 
   94   102     1 
   94   103     1 
   95    96     1 
   95    98     1 
   95   102     1 
   95   103     1 
   96   102     1 
   96   103     1 
   96   106     1 
   96   107     1 
   97    99     1 
   97   100     1 
   97   101     1 
   97   105     1 
   97   108     1 
   98   105     1 
   98   108     1 
   99   102     1 
   99   103     1 
   99   104     1 
  100   102     1 
  100   103     1 
  100   104     1 
  101   104     1 
  106   108     1 
  107   108     1 

[ angles ]
;  ai    aj    ak funct            c0            c1            c2            c3
    2     1     3     5 
    2     1     4     5 
    2     1     5     5 
    3     1     4     5 
    3     1     5     5 
    4     1     5     5 
    1     5     6     5 
    1     5     7     5 
    6     5     7     5 
    5     7     8     5 
    5     7     9     5 
    8     7     9     5 
    7     9    10     5 
    7     9    11     5 
    7     9    17     5 
   10     9    11     5 
   10     9    17     5 
   11     9    17     5 
    9    11    12     5 
    9    11    13     5 
    9    11    14     5 
   12    11    13     5 
   12    11    14     5 
   13    11    14     5 
   11    14    15     5 
   11    14    16     5 
   15    14    16     5 
    9    17    18     5 
    9    17    19     5 
   18    17    19     5 
   17    19    20     5 
   17    19    21     5 
   20    19    21     5 
   19    21    22     5 
   19    21    23     5 
   19    21    41     5 
   22    21    23     5 
   22    21    41     5 
   23    21    41     5 
   21    23    24     5 
   21    23    25     5 
   21    23    26     5 
   24    23    25     5 
   24    23    26     5 
   25    23    26     5 
   23    26    27     5 
   23    26    32     5 
   27    26    32     5 
   26    27    28     5 
   26    27    29     5 
   28    27    29     5 
   27    29    30     5 
   27    29    31     5 
   30    29    31     5 
   29    31    32     5 
   29    31    37     5 
   32    31    37     5 
   26    32    31     5 
   26    32    33     5 
   31    32    33     5 
   32    33    34     5 
   32    33    35     5 
   34    33    35     5 
   33    35    36     5 
   33    35    39     5 
   36    35    39     5 
   31    37    38     5 
   31    37    39     5 
   38    37    39     5 
   35    39    37     5 
   35    39    40     5 
   37    39    40     5 
   21    41    42     5 
   21    41    43     5 
   42    41    43     5 
   41    43    44     5 
   41    43    45     5 
   44    43    45     5 
   43    45    46     5 
   43    45    47     5 
   43    45    57     5 
   46    45    47     5 
   46    45    57     5 
   47    45    57     5 
   45    47    48     5 
   45    47    49     5 
   45    47    53     5 
   48    47    49     5 
   48    47    53     5 
   49    47    53     5 
   47    49    50     5 
   47    49    51     5 
   47    49    52     5 
   50    49    51     5 
   50    49    52     5 
   51    49    52     5 
   47    53    54     5 
   47    53    55     5 
   47    53    56     5 
   54    53    55     5 
   54    53    56     5 
   55    53    56     5 
   45    57    58     5 
   45    57    59     5 
   58    57    59     5 
   57    59    60     5 
   57    59    61     5 
   60    59    61     5 
   59    61    62     5 
   59    61    63     5 
   59    61    76     5 
   62    61    63     5 
   62    61    76     5 
   63    61    76     5 
   61    63    64     5 
   61    63    65     5 
   61    63    69     5 
   64    63    65     5 
   64    63    69     5 
   65    63    69     5 
   63    65    66     5 
   63    65    67     5 
   63    65    68     5 
   66    65    67     5 
   66    65    68     5 
   67    65    68     5 
   63    69    70     5 
   63    69    71     5 
   63    69    72     5 
   70    69    71     5 
   70    69    72     5 
   71    69    72     5 
   69    72    73     5 
   69    72    74     5 
   69    72    75     5 
   73    72    74     5 
   73    72    75     5 
   74    72    75     5 
   61    76    77     5 
   61    76    78     5 
   77    76    78     5 
   76    78    79     5 
   76    78    82     5 
   79    78    82     5 
   78    79    80     5 
   78    79    81     5 
   78    79    87     5 
   80    79    81     5 
   80    79    87     5 
   81    79    87     5 
   78    82    83     5 
   78    82    84     5 
   78    82    90     5 
   83    82    84     5 
   83    82    90     5 
   84    82    90     5 
   82    84    85     5 
   82    84    86     5 
   82    84    87     5 
   85    84    86     5 
   85    84    87     5 
   86    84    87     5 
   79    87    84     5 
   79    87    88     5 
   79    87    89     5 
   84    87    88     5 
   84    87    89     5 
   88    87    89     5 
   82    90    91     5 
   82    90    92     5 
   91    90    92     5 
   90    92    93     5 
   90    92    96     5 
   93    92    96     5 
   92    93    94     5 
   92    93    95     5 
   92    93   101     5 
   94    93    95     5 
   94    93   101     5 
   95    93   101     5 
   92    96    97     5 
   92    96    98     5 
   92    96   104     5 
   97    96    98     5 
   97    96   104     5 
   98    96   104     5 
   96    98    99     5 
   96    98   100     5 
   96    98   101     5 
   99    98   100     5 
   99    98   101     5 
  100    98   101     5 
   93   101    98     5 
   93   101   102     5 
   93   101   103     5 
   98   101   102     5 
   98   101   103     5 
  102   101   103     5 
   96   104   105     5 
   96   104   108     5 
  105   104   108     5 
  104   105   106     5 
  104   105   107     5 
  106   105   107     5 

[ dihedrals ]
;  ai    aj    ak    al funct            c0            c1            c2            c3            c4            c5
    2     1     5     6     9 
    2     1     5     7     9 
    3     1     5     6     9 
    3     1     5     7     9 
    4     1     5     6     9 
    4     1     5     7     9 
    1     5     7     8     9 
    1     5     7     9     9 
    6     5     7     8     9 
    6     5     7     9     9 
    5     7     9    10     9 
    5     7     9    11     9 
    5     7     9    17     9 
    8     7     9    10     9 
    8     7     9    11     9 
    8     7     9    17     9 
    7     9    11    12     9 
    7     9    11    13     9 
    7     9    11    14     9 
   10     9    11    12     9 
   10     9    11    13     9 
   10     9    11    14     9 
   17     9    11    12     9 
   17     9    11    13     9 
   17     9    11    14     9 
    7     9    17    18     9 
    7     9    17    19     9 
   10     9    17    18     9 
   10     9    17    19     9 
   11     9    17    18     9 
   11     9    17    19     9 
    9    11    14    15     9 
    9    11    14    16     9 
   12    11    14    15     9 
   12    11    14    16     9 
   13    11    14    15     9 
   13    11    14    16     9 
    9    17    19    20     9 
    9    17    19    21     9 
   18    17    19    20     9 
   18    17    19    21     9 
   17    19    21    22     9 
   17    19    21    23     9 
   17    19    21    41     9 
   20    19    21    22     9 
   20    19    21    23     9 
   20    19    21    41     9 
   19    21    23    24     9 
   19    21    23    25     9 
   19    21    23    26     9 
   22    21    23    24     9 
   22    21    23    25     9 
   22    21    23    26     9 
   41    21    23    24     9 
   41    21    23    25     9 
   41    21    23    26     9 
   19    21    41    42     9 
   19    21    41    43     9 
   22    21    41    42     9 
   22    21    41    43     9 
   23    21    41    42     9 
   23    21    41    43     9 
   21    23    26    27     9 
   21    23    26    32     9 
   24    23    26    27     9 
   24    23    26    32     9 
   25    23    26    27     9 
   25    23    26    32     9 
   23    26    27    28     9 
   23    26    27    29     9 
   32    26    27    28     9 
   32    26    27    29     9 
   23    26    32    31     9 
   23    26    32    33     9 
   27    26    32    31     9 
   27    26    32    33     9 
   26    27    29    30     9 
   26    27    29    31     9 
   28    27    29    30     9 
   28    27    29    31     9 
   27    29    31    32     9 
   27    29    31    37     9 
   30    29    31    32     9 
   30    29    31    37     9 
   29    31    32    26     9 
   29    31    32    33     9 
   37    31    32    26     9 
   37    31    32    33     9 
   29    31    37    38     9 
   29    31    37    39     9 
   32    31    37    38     9 
   32    31    37    39     9 
   26    32    33    34     9 
   26    32    33    35     9 
   31    32    33    34     9 
   31    32    33    35     9 
   32    33    35    36     9 
   32    33    35    39     9 
   34    33    35    36     9 
   34    33    35    39     9 
   33    35    39    37     9 
   33    35    39    40     9 
   36    35    39    37     9 
   36    35    39    40     9 
   31    37    39    35     9 
   31    37    39    40     9 
   38    37    39    35     9 
   38    37    39    40     9 
   21    41    43    44     9 
   21    41    43    45     9 
   42    41    43    44     9 
   42    41    43    45     9 
   41    43    45    46     9 
   41    43    45    47     9 
   41    43    45    57     9 
   44    43    45    46     9 
   44    43    45    47     9 
   44    43    45    57     9 
   43    45    47    48     9 
   43    45    47    49     9 
   43    45    47    53     9 
   46    45    47    48     9 
   46    45    47    49     9 
   46    45    47    53     9 
   57    45    47    48     9 
   57    45    47    49     9 
   57    45    47    53     9 
   43    45    57    58     9 
   43    45    57    59     9 
   46    45    57    58     9 
   46    45    57    59     9 
   47    45    57    58     9 
   47    45    57    59     9 
   45    47    49    50     9 
   45    47    49    51     9 
   45    47    49    52     9 
   48    47    49    50     9 
   48    47    49    51     9 
   48    47    49    52     9 
   53    47    49    50     9 
   53    47    49    51     9 
   53    47    49    52     9 
   45    47    53    54     9 
   45    47    53    55     9 
   45    47    53    56     9 
   48    47    53    54     9 
   48    47    53    55     9 
   48    47    53    56     9 
   49    47    53    54     9 
   49    47    53    55     9 
   49    47    53    56     9 
   45    57    59    60     9 
   45    57    59    61     9 
   58    57    59    60     9 
   58    57    59    61     9 
   57    59    61    62     9 
   57    59    61    63     9 
   57    59    61    76     9 
   60    59    61    62     9 
   60    59    61    63     9 
   60    59    61    76     9 
   59    61    63    64     9 
   59    61    63    65     9 
   59    61    63    69     9 
   62    61    63    64     9 
   62    61    63    65     9 
   62    61    63    69     9 
   76    61    63    64     9 
   76    61    63    65     9 
   76    61    63    69     9 
   59    61    76    77     9 
   59    61    76    78     9 
   62    61    76    77     9 
   62    61    76    78     9 
   63    61    76    77     9 
   63    61    76    78     9 
   61    63    65    66     9 
   61    63    65    67     9 
   61    63    65    68     9 
   64    63    65    66     9 
   64    63    65    67     9 
   64    63    65    68     9 
   69    63    65    66     9 
   69    63    65    67     9 
   69    63    65    68     9 
   61    63    69    70     9 
   61    63    69    71     9 
   61    63    69    72     9 
   64    63    69    70     9 
   64    63    69    71     9 
   64    63    69    72     9 
   65    63    69    70     9 
   65    63    69    71     9 
   65    63    69    72     9 
   63    69    72    73     9 
   63    69    72    74     9 
   63    69    72    75     9 
   70    69    72    73     9 
   70    69    72    74     9 
   70    69    72    75     9 
   71    69    72    73     9 
   71    69    72    74     9 
   71    69    72    75     9 
   61    76    78    79     9 
   61    76    78    82     9 
   77    76    78    79     9 
   77    76    78    82     9 
   76    78    79    80     9 
   76    78    79    81     9 
   76    78    79    87     9 
   82    78    79    80     9 
   82    78    79    81     9 
   82    78    79    87     9 
   76    78    82    83     9 
   76    78    82    84     9 
   76    78    82    90     9 
   79    78    82    83     9 
   79    78    82    84     9 
   79    78    82    90     9 
   78    79    87    84     9 
   78    79    87    88     9 
   78    79    87    89     9 
   80    79    87    84     9 
   80    79    87    88     9 
   80    79    87    89     9 
   81    79    87    84     9 
   81    79    87    88     9 
   81    79    87    89     9 
   78    82    84    85     9 
   78    82    84    86     9 
   78    82    84    87     9 
   83    82    84    85     9 
   83    82    84    86     9 
   83    82    84    87     9 
   90    82    84    85     9 
   90    82    84    86     9 
   90    82    84    87     9 
   78    82    90    91     9 
   78    82    90    92     9 
   83    82    90    91     9 
   83    82    90    92     9 
   84    82    90    91     9 
   84    82    90    92     9 
   82    84    87    79     9 
   82    84    87    88     9 
   82    84    87    89     9 
   85    84    87    79     9 
   85    84    87    88     9 
   85    84    87    89     9 
   86    84    87    79     9 
   86    84    87    88     9 
   86    84    87    89     9 
   82    90    92    93     9 
   82    90    92    96     9 
   91    90    92    93     9 
   91    90    92    96     9 
   90    92    93    94     9 
   90    92    93    95     9 
   90    92    93   101     9 
   96    92    93    94     9 
   96    92    93    95     9 
   96    92    93   101     9 
   90    92    96    97     9 
   90    92    96    98     9 
   90    92    96   104     9 
   93    92    96    97     9 
   93    92    96    98     9 
   93    92    96   104     9 
   92    93   101    98     9 
   92    93   101   102     9 
   92    93   101   103     9 
   94    93   101    98     9 
   94    93   101   102     9 
   94    93   101   103     9 
   95    93   101    98     9 
   95    93   101   102     9 
   95    93   101   103     9 
   92    96    98    99     9 
   92    96    98   100     9 
   92    96    98   101     9 
   97    96    98    99     9 
   97    96    98   100     9 
   97    96    98   101     9 
  104    96    98    99     9 
  104    96    98   100     9 
  104    96    98   101     9 
   92    96   104   105     9 
   92    96   104   108     9 
   97    96   104   105     9 
   97    96   104   108     9 
   98    96   104   105     9 
   98    96   104   108     9 
   96    98   101    93     9 
   96    98   101   102     9 
   96    98   101   103     9 
   99    98   101    93     9 
   99    98   101   102     9 
   99    98   101   103     9 
  100    98   101    93     9 
  100    98   101   102     9 
  100    98   101   103     9 
   96   104   105   106     9 
   96   104   105   107     9 
  108   104   105   106     9 
  108   104   105   107     9 

[ dihedrals ]
;  ai    aj    ak    al funct            c0            c1            c2            c3
    5     1     7     6     2 
    7     5     9     8     2 
   14    11    16    15     2 
   17     9    19    18     2 
   19    17    21    20     2 
   41    21    43    42     2 
   43    41    45    44     2 
   57    45    59    58     2 
   59    57    61    60     2 
   76    61    78    77     2 
   78    76    82    79     2 
   90    82    92    91     2 
   92    90    96    93     2 
  104    96   105   108     2 
  104   105    96   108     2 
  105   104   107   106     2 
  105   104   106   107     2 

[ cmap ]
;  ai    aj    ak    al    am funct
    5     7     9    17    19     1 
   17    19    21    41    43     1 
   41    43    45    57    59     1 
   57    59    61    76    78     1 
   76    78    82    90    92     1 

; Include Position restraint file
#ifdef POSRES
#include "posre.itp"
#endif

; Include water topology
#include "charmm36-nov2018.ff/tip3p.itp"

#ifdef POSRES_WATER
; Position restraint for each water oxygen
[ position_restraints ]
;  i funct       fcx        fcy        fcz
   1    1       1000       1000       1000
#endif

; Include topology for ions
#include "charmm36-nov2018.ff/ions.itp"

[ system ]
; Name
Protein in water

[ molecules ]
; Compound        #mols
Protein             1
SOL         1931
NA               7
CL               6
