;
;	File 'adtppvg.top' was generated
;	By user: unknown (1102)
;	On host: CHEM-pekoe
;	At date: Thu Nov 11 13:28:27 2021

;
;	This is a standalone topology file
;
;	Created by:
;	                 :-) GROMACS - gmx pdb2gmx, VERSION 5.1.4 (-:
;	
;	Executable:   /home/kuczera/prog/gromacs-5.1.4/bin/gmx
;	Data prefix:  /home/kuczera/prog/gromacs-5.1.4
;	Command line:
;	  gmx pdb2gmx -inter -ignh -f adtppvg_chm.pdb -p adtppvg.top -o adtppvg.gro -ff charmm36-nov2018 -water tip3p
;	Force field was read from the standard GROMACS share directory.
;

; Include forcefield parameters
#include "charmm36-nov2018.ff/forcefield.itp"

[ moleculetype ]
; Name            nrexcl
Protein             3

[ atoms ]
;   nr       type  resnr residue  atom   cgnr     charge       mass  typeB    chargeB      massB
; residue  43 ACE rtp ACE  q  0.0
     1        CT3     43    ACE    CH3      1      -0.27     12.011   ; qtot -0.27
     2        HA3     43    ACE   HH31      1       0.09      1.008   ; qtot -0.18
     3        HA3     43    ACE   HH32      1       0.09      1.008   ; qtot -0.09
     4        HA3     43    ACE   HH33      1       0.09      1.008   ; qtot 0
     5          C     43    ACE      C      2       0.51     12.011   ; qtot 0.51
     6          O     43    ACE      O      2      -0.51     15.999   ; qtot 0
; residue  43 ALA rtp ALA  q  0.0
     7        NH1     43    ALA      N      3      -0.47     14.007   ; qtot -0.47
     8          H     43    ALA     HN      4       0.31      1.008   ; qtot -0.16
     9        CT1     43    ALA     CA      5       0.07     12.011   ; qtot -0.09
    10        HB1     43    ALA     HA      6       0.09      1.008   ; qtot 0
    11        CT3     43    ALA     CB      7      -0.27     12.011   ; qtot -0.27
    12        HA3     43    ALA    HB1      8       0.09      1.008   ; qtot -0.18
    13        HA3     43    ALA    HB2      9       0.09      1.008   ; qtot -0.09
    14        HA3     43    ALA    HB3     10       0.09      1.008   ; qtot 0
    15          C     43    ALA      C     11       0.51     12.011   ; qtot 0.51
    16          O     43    ALA      O     12      -0.51     15.999   ; qtot 0
; residue  44 ASP rtp ASP  q -1.0
    17        NH1     44    ASP      N     13      -0.47     14.007   ; qtot -0.47
    18          H     44    ASP     HN     14       0.31      1.008   ; qtot -0.16
    19        CT1     44    ASP     CA     15       0.07     12.011   ; qtot -0.09
    20        HB1     44    ASP     HA     16       0.09      1.008   ; qtot 0
    21       CT2A     44    ASP     CB     17      -0.28     12.011   ; qtot -0.28
    22        HA2     44    ASP    HB1     18       0.09      1.008   ; qtot -0.19
    23        HA2     44    ASP    HB2     19       0.09      1.008   ; qtot -0.1
    24         CC     44    ASP     CG     20       0.62     12.011   ; qtot 0.52
    25         OC     44    ASP    OD1     21      -0.76     15.999   ; qtot -0.24
    26         OC     44    ASP    OD2     22      -0.76     15.999   ; qtot -1
    27          C     44    ASP      C     23       0.51     12.011   ; qtot -0.49
    28          O     44    ASP      O     24      -0.51     15.999   ; qtot -1
; residue  45 THR rtp THR  q  0.0
    29        NH1     45    THR      N     25      -0.47     14.007   ; qtot -1.47
    30          H     45    THR     HN     26       0.31      1.008   ; qtot -1.16
    31        CT1     45    THR     CA     27       0.07     12.011   ; qtot -1.09
    32        HB1     45    THR     HA     28       0.09      1.008   ; qtot -1
    33        CT1     45    THR     CB     29       0.14     12.011   ; qtot -0.86
    34        HA1     45    THR     HB     30       0.09      1.008   ; qtot -0.77
    35        OH1     45    THR    OG1     31      -0.66     15.999   ; qtot -1.43
    36          H     45    THR    HG1     32       0.43      1.008   ; qtot -1
    37        CT3     45    THR    CG2     33      -0.27     12.011   ; qtot -1.27
    38        HA3     45    THR   HG21     34       0.09      1.008   ; qtot -1.18
    39        HA3     45    THR   HG22     35       0.09      1.008   ; qtot -1.09
    40        HA3     45    THR   HG23     36       0.09      1.008   ; qtot -1
    41          C     45    THR      C     37       0.51     12.011   ; qtot -0.49
    42          O     45    THR      O     38      -0.51     15.999   ; qtot -1
; residue  46 PRO rtp PRO  q  0.0
    43          N     46    PRO      N     39      -0.29     14.007   ; qtot -1.29
    44        CP3     46    PRO     CD     40          0     12.011   ; qtot -1.29
    45        HA2     46    PRO    HD1     41       0.09      1.008   ; qtot -1.2
    46        HA2     46    PRO    HD2     42       0.09      1.008   ; qtot -1.11
    47        CP1     46    PRO     CA     43       0.02     12.011   ; qtot -1.09
    48        HB1     46    PRO     HA     44       0.09      1.008   ; qtot -1
    49        CP2     46    PRO     CB     45      -0.18     12.011   ; qtot -1.18
    50        HA2     46    PRO    HB1     46       0.09      1.008   ; qtot -1.09
    51        HA2     46    PRO    HB2     47       0.09      1.008   ; qtot -1
    52        CP2     46    PRO     CG     48      -0.18     12.011   ; qtot -1.18
    53        HA2     46    PRO    HG1     49       0.09      1.008   ; qtot -1.09
    54        HA2     46    PRO    HG2     50       0.09      1.008   ; qtot -1
    55          C     46    PRO      C     51       0.51     12.011   ; qtot -0.49
    56          O     46    PRO      O     52      -0.51     15.999   ; qtot -1
; residue  47 PRO rtp PRO  q  0.0
    57          N     47    PRO      N     53      -0.29     14.007   ; qtot -1.29
    58        CP3     47    PRO     CD     54          0     12.011   ; qtot -1.29
    59        HA2     47    PRO    HD1     55       0.09      1.008   ; qtot -1.2
    60        HA2     47    PRO    HD2     56       0.09      1.008   ; qtot -1.11
    61        CP1     47    PRO     CA     57       0.02     12.011   ; qtot -1.09
    62        HB1     47    PRO     HA     58       0.09      1.008   ; qtot -1
    63        CP2     47    PRO     CB     59      -0.18     12.011   ; qtot -1.18
    64        HA2     47    PRO    HB1     60       0.09      1.008   ; qtot -1.09
    65        HA2     47    PRO    HB2     61       0.09      1.008   ; qtot -1
    66        CP2     47    PRO     CG     62      -0.18     12.011   ; qtot -1.18
    67        HA2     47    PRO    HG1     63       0.09      1.008   ; qtot -1.09
    68        HA2     47    PRO    HG2     64       0.09      1.008   ; qtot -1
    69          C     47    PRO      C     65       0.51     12.011   ; qtot -0.49
    70          O     47    PRO      O     66      -0.51     15.999   ; qtot -1
; residue  48 VAL rtp VAL  q  0.0
    71        NH1     48    VAL      N     67      -0.47     14.007   ; qtot -1.47
    72          H     48    VAL     HN     68       0.31      1.008   ; qtot -1.16
    73        CT1     48    VAL     CA     69       0.07     12.011   ; qtot -1.09
    74        HB1     48    VAL     HA     70       0.09      1.008   ; qtot -1
    75        CT1     48    VAL     CB     71      -0.09     12.011   ; qtot -1.09
    76        HA1     48    VAL     HB     72       0.09      1.008   ; qtot -1
    77        CT3     48    VAL    CG1     73      -0.27     12.011   ; qtot -1.27
    78        HA3     48    VAL   HG11     74       0.09      1.008   ; qtot -1.18
    79        HA3     48    VAL   HG12     75       0.09      1.008   ; qtot -1.09
    80        HA3     48    VAL   HG13     76       0.09      1.008   ; qtot -1
    81        CT3     48    VAL    CG2     77      -0.27     12.011   ; qtot -1.27
    82        HA3     48    VAL   HG21     78       0.09      1.008   ; qtot -1.18
    83        HA3     48    VAL   HG22     79       0.09      1.008   ; qtot -1.09
    84        HA3     48    VAL   HG23     80       0.09      1.008   ; qtot -1
    85          C     48    VAL      C     81       0.51     12.011   ; qtot -0.49
    86          O     48    VAL      O     82      -0.51     15.999   ; qtot -1
; residue  49 GLY rtp GLY  q  0.0
    87        NH1     49    GLY      N     83      -0.47     14.007   ; qtot -1.47
    88          H     49    GLY     HN     84       0.31      1.008   ; qtot -1.16
    89        CT2     49    GLY     CA     85      -0.02     12.011   ; qtot -1.18
    90        HB2     49    GLY    HA1     86       0.09      1.008   ; qtot -1.09
    91        HB2     49    GLY    HA2     87       0.09      1.008   ; qtot -1
    92         CC     49    GLY      C     88       0.55     12.011   ; qtot -0.45
    93        NH2     49    GLY     NT     89      -0.62    14.0027   ; qtot -1.07
    94          H     49    GLY    HT1     90        0.3      1.008   ; qtot -0.77
    95          H     49    GLY    HT2     91       0.32      1.008   ; qtot -0.45
    96          O     49    GLY      O     92      -0.55    15.9994   ; qtot -1

[ bonds ]
;  ai    aj funct            c0            c1            c2            c3
    1     2     1 
    1     3     1 
    1     4     1 
    1     5     1 
    5     6     1 
    5     7     1 
    7     8     1 
    7     9     1 
    9    10     1 
    9    11     1 
    9    15     1 
   11    12     1 
   11    13     1 
   11    14     1 
   15    16     1 
   15    17     1 
   17    18     1 
   17    19     1 
   19    20     1 
   19    21     1 
   19    27     1 
   21    22     1 
   21    23     1 
   21    24     1 
   24    25     1 
   24    26     1 
   27    28     1 
   27    29     1 
   29    30     1 
   29    31     1 
   31    32     1 
   31    33     1 
   31    41     1 
   33    34     1 
   33    35     1 
   33    37     1 
   35    36     1 
   37    38     1 
   37    39     1 
   37    40     1 
   41    42     1 
   41    43     1 
   43    44     1 
   43    47     1 
   44    45     1 
   44    46     1 
   44    52     1 
   47    48     1 
   47    49     1 
   47    55     1 
   49    50     1 
   49    51     1 
   49    52     1 
   52    53     1 
   52    54     1 
   55    56     1 
   55    57     1 
   57    58     1 
   57    61     1 
   58    59     1 
   58    60     1 
   58    66     1 
   61    62     1 
   61    63     1 
   61    69     1 
   63    64     1 
   63    65     1 
   63    66     1 
   66    67     1 
   66    68     1 
   69    70     1 
   69    71     1 
   71    72     1 
   71    73     1 
   73    74     1 
   73    75     1 
   73    85     1 
   75    76     1 
   75    77     1 
   75    81     1 
   77    78     1 
   77    79     1 
   77    80     1 
   81    82     1 
   81    83     1 
   81    84     1 
   85    86     1 
   85    87     1 
   87    88     1 
   87    89     1 
   89    90     1 
   89    91     1 
   89    92     1 
   92    93     1 
   92    96     1 
   93    94     1 
   93    95     1 

[ pairs ]
;  ai    aj funct            c0            c1            c2            c3
    1     8     1 
    1     9     1 
    2     6     1 
    2     7     1 
    3     6     1 
    3     7     1 
    4     6     1 
    4     7     1 
    5    10     1 
    5    11     1 
    5    15     1 
    6     8     1 
    6     9     1 
    7    12     1 
    7    13     1 
    7    14     1 
    7    16     1 
    7    17     1 
    8    10     1 
    8    11     1 
    8    15     1 
    9    18     1 
    9    19     1 
   10    12     1 
   10    13     1 
   10    14     1 
   10    16     1 
   10    17     1 
   11    16     1 
   11    17     1 
   12    15     1 
   13    15     1 
   14    15     1 
   15    20     1 
   15    21     1 
   15    27     1 
   16    18     1 
   16    19     1 
   17    22     1 
   17    23     1 
   17    24     1 
   17    28     1 
   17    29     1 
   18    20     1 
   18    21     1 
   18    27     1 
   19    25     1 
   19    26     1 
   19    30     1 
   19    31     1 
   20    22     1 
   20    23     1 
   20    24     1 
   20    28     1 
   20    29     1 
   21    28     1 
   21    29     1 
   22    25     1 
   22    26     1 
   22    27     1 
   23    25     1 
   23    26     1 
   23    27     1 
   24    27     1 
   27    32     1 
   27    33     1 
   27    41     1 
   28    30     1 
   28    31     1 
   29    34     1 
   29    35     1 
   29    37     1 
   29    42     1 
   29    43     1 
   30    32     1 
   30    33     1 
   30    41     1 
   31    36     1 
   31    38     1 
   31    39     1 
   31    40     1 
   31    44     1 
   31    47     1 
   32    34     1 
   32    35     1 
   32    37     1 
   32    42     1 
   32    43     1 
   33    42     1 
   33    43     1 
   34    36     1 
   34    38     1 
   34    39     1 
   34    40     1 
   34    41     1 
   35    38     1 
   35    39     1 
   35    40     1 
   35    41     1 
   36    37     1 
   37    41     1 
   41    45     1 
   41    46     1 
   41    48     1 
   41    49     1 
   41    52     1 
   41    55     1 
   42    44     1 
   42    47     1 
   43    50     1 
   43    51     1 
   43    53     1 
   43    54     1 
   43    56     1 
   43    57     1 
   44    48     1 
   44    50     1 
   44    51     1 
   44    55     1 
   45    47     1 
   45    49     1 
   45    53     1 
   45    54     1 
   46    47     1 
   46    49     1 
   46    53     1 
   46    54     1 
   47    53     1 
   47    54     1 
   47    58     1 
   47    61     1 
   48    50     1 
   48    51     1 
   48    52     1 
   48    56     1 
   48    57     1 
   49    56     1 
   49    57     1 
   50    53     1 
   50    54     1 
   50    55     1 
   51    53     1 
   51    54     1 
   51    55     1 
   52    55     1 
   55    59     1 
   55    60     1 
   55    62     1 
   55    63     1 
   55    66     1 
   55    69     1 
   56    58     1 
   56    61     1 
   57    64     1 
   57    65     1 
   57    67     1 
   57    68     1 
   57    70     1 
   57    71     1 
   58    62     1 
   58    64     1 
   58    65     1 
   58    69     1 
   59    61     1 
   59    63     1 
   59    67     1 
   59    68     1 
   60    61     1 
   60    63     1 
   60    67     1 
   60    68     1 
   61    67     1 
   61    68     1 
   61    72     1 
   61    73     1 
   62    64     1 
   62    65     1 
   62    66     1 
   62    70     1 
   62    71     1 
   63    70     1 
   63    71     1 
   64    67     1 
   64    68     1 
   64    69     1 
   65    67     1 
   65    68     1 
   65    69     1 
   66    69     1 
   69    74     1 
   69    75     1 
   69    85     1 
   70    72     1 
   70    73     1 
   71    76     1 
   71    77     1 
   71    81     1 
   71    86     1 
   71    87     1 
   72    74     1 
   72    75     1 
   72    85     1 
   73    78     1 
   73    79     1 
   73    80     1 
   73    82     1 
   73    83     1 
   73    84     1 
   73    88     1 
   73    89     1 
   74    76     1 
   74    77     1 
   74    81     1 
   74    86     1 
   74    87     1 
   75    86     1 
   75    87     1 
   76    78     1 
   76    79     1 
   76    80     1 
   76    82     1 
   76    83     1 
   76    84     1 
   76    85     1 
   77    82     1 
   77    83     1 
   77    84     1 
   77    85     1 
   78    81     1 
   79    81     1 
   80    81     1 
   81    85     1 
   85    90     1 
   85    91     1 
   85    92     1 
   86    88     1 
   86    89     1 
   87    93     1 
   87    96     1 
   88    90     1 
   88    91     1 
   88    92     1 
   89    94     1 
   89    95     1 
   90    93     1 
   90    96     1 
   91    93     1 
   91    96     1 
   94    96     1 
   95    96     1 

[ angles ]
;  ai    aj    ak funct            c0            c1            c2            c3
    2     1     3     5 
    2     1     4     5 
    2     1     5     5 
    3     1     4     5 
    3     1     5     5 
    4     1     5     5 
    1     5     6     5 
    1     5     7     5 
    6     5     7     5 
    5     7     8     5 
    5     7     9     5 
    8     7     9     5 
    7     9    10     5 
    7     9    11     5 
    7     9    15     5 
   10     9    11     5 
   10     9    15     5 
   11     9    15     5 
    9    11    12     5 
    9    11    13     5 
    9    11    14     5 
   12    11    13     5 
   12    11    14     5 
   13    11    14     5 
    9    15    16     5 
    9    15    17     5 
   16    15    17     5 
   15    17    18     5 
   15    17    19     5 
   18    17    19     5 
   17    19    20     5 
   17    19    21     5 
   17    19    27     5 
   20    19    21     5 
   20    19    27     5 
   21    19    27     5 
   19    21    22     5 
   19    21    23     5 
   19    21    24     5 
   22    21    23     5 
   22    21    24     5 
   23    21    24     5 
   21    24    25     5 
   21    24    26     5 
   25    24    26     5 
   19    27    28     5 
   19    27    29     5 
   28    27    29     5 
   27    29    30     5 
   27    29    31     5 
   30    29    31     5 
   29    31    32     5 
   29    31    33     5 
   29    31    41     5 
   32    31    33     5 
   32    31    41     5 
   33    31    41     5 
   31    33    34     5 
   31    33    35     5 
   31    33    37     5 
   34    33    35     5 
   34    33    37     5 
   35    33    37     5 
   33    35    36     5 
   33    37    38     5 
   33    37    39     5 
   33    37    40     5 
   38    37    39     5 
   38    37    40     5 
   39    37    40     5 
   31    41    42     5 
   31    41    43     5 
   42    41    43     5 
   41    43    44     5 
   41    43    47     5 
   44    43    47     5 
   43    44    45     5 
   43    44    46     5 
   43    44    52     5 
   45    44    46     5 
   45    44    52     5 
   46    44    52     5 
   43    47    48     5 
   43    47    49     5 
   43    47    55     5 
   48    47    49     5 
   48    47    55     5 
   49    47    55     5 
   47    49    50     5 
   47    49    51     5 
   47    49    52     5 
   50    49    51     5 
   50    49    52     5 
   51    49    52     5 
   44    52    49     5 
   44    52    53     5 
   44    52    54     5 
   49    52    53     5 
   49    52    54     5 
   53    52    54     5 
   47    55    56     5 
   47    55    57     5 
   56    55    57     5 
   55    57    58     5 
   55    57    61     5 
   58    57    61     5 
   57    58    59     5 
   57    58    60     5 
   57    58    66     5 
   59    58    60     5 
   59    58    66     5 
   60    58    66     5 
   57    61    62     5 
   57    61    63     5 
   57    61    69     5 
   62    61    63     5 
   62    61    69     5 
   63    61    69     5 
   61    63    64     5 
   61    63    65     5 
   61    63    66     5 
   64    63    65     5 
   64    63    66     5 
   65    63    66     5 
   58    66    63     5 
   58    66    67     5 
   58    66    68     5 
   63    66    67     5 
   63    66    68     5 
   67    66    68     5 
   61    69    70     5 
   61    69    71     5 
   70    69    71     5 
   69    71    72     5 
   69    71    73     5 
   72    71    73     5 
   71    73    74     5 
   71    73    75     5 
   71    73    85     5 
   74    73    75     5 
   74    73    85     5 
   75    73    85     5 
   73    75    76     5 
   73    75    77     5 
   73    75    81     5 
   76    75    77     5 
   76    75    81     5 
   77    75    81     5 
   75    77    78     5 
   75    77    79     5 
   75    77    80     5 
   78    77    79     5 
   78    77    80     5 
   79    77    80     5 
   75    81    82     5 
   75    81    83     5 
   75    81    84     5 
   82    81    83     5 
   82    81    84     5 
   83    81    84     5 
   73    85    86     5 
   73    85    87     5 
   86    85    87     5 
   85    87    88     5 
   85    87    89     5 
   88    87    89     5 
   87    89    90     5 
   87    89    91     5 
   87    89    92     5 
   90    89    91     5 
   90    89    92     5 
   91    89    92     5 
   89    92    93     5 
   89    92    96     5 
   93    92    96     5 
   92    93    94     5 
   92    93    95     5 
   94    93    95     5 

[ dihedrals ]
;  ai    aj    ak    al funct            c0            c1            c2            c3            c4            c5
    2     1     5     6     9 
    2     1     5     7     9 
    3     1     5     6     9 
    3     1     5     7     9 
    4     1     5     6     9 
    4     1     5     7     9 
    1     5     7     8     9 
    1     5     7     9     9 
    6     5     7     8     9 
    6     5     7     9     9 
    5     7     9    10     9 
    5     7     9    11     9 
    5     7     9    15     9 
    8     7     9    10     9 
    8     7     9    11     9 
    8     7     9    15     9 
    7     9    11    12     9 
    7     9    11    13     9 
    7     9    11    14     9 
   10     9    11    12     9 
   10     9    11    13     9 
   10     9    11    14     9 
   15     9    11    12     9 
   15     9    11    13     9 
   15     9    11    14     9 
    7     9    15    16     9 
    7     9    15    17     9 
   10     9    15    16     9 
   10     9    15    17     9 
   11     9    15    16     9 
   11     9    15    17     9 
    9    15    17    18     9 
    9    15    17    19     9 
   16    15    17    18     9 
   16    15    17    19     9 
   15    17    19    20     9 
   15    17    19    21     9 
   15    17    19    27     9 
   18    17    19    20     9 
   18    17    19    21     9 
   18    17    19    27     9 
   17    19    21    22     9 
   17    19    21    23     9 
   17    19    21    24     9 
   20    19    21    22     9 
   20    19    21    23     9 
   20    19    21    24     9 
   27    19    21    22     9 
   27    19    21    23     9 
   27    19    21    24     9 
   17    19    27    28     9 
   17    19    27    29     9 
   20    19    27    28     9 
   20    19    27    29     9 
   21    19    27    28     9 
   21    19    27    29     9 
   19    21    24    25     9 
   19    21    24    26     9 
   22    21    24    25     9 
   22    21    24    26     9 
   23    21    24    25     9 
   23    21    24    26     9 
   19    27    29    30     9 
   19    27    29    31     9 
   28    27    29    30     9 
   28    27    29    31     9 
   27    29    31    32     9 
   27    29    31    33     9 
   27    29    31    41     9 
   30    29    31    32     9 
   30    29    31    33     9 
   30    29    31    41     9 
   29    31    33    34     9 
   29    31    33    35     9 
   29    31    33    37     9 
   32    31    33    34     9 
   32    31    33    35     9 
   32    31    33    37     9 
   41    31    33    34     9 
   41    31    33    35     9 
   41    31    33    37     9 
   29    31    41    42     9 
   29    31    41    43     9 
   32    31    41    42     9 
   32    31    41    43     9 
   33    31    41    42     9 
   33    31    41    43     9 
   31    33    35    36     9 
   34    33    35    36     9 
   37    33    35    36     9 
   31    33    37    38     9 
   31    33    37    39     9 
   31    33    37    40     9 
   34    33    37    38     9 
   34    33    37    39     9 
   34    33    37    40     9 
   35    33    37    38     9 
   35    33    37    39     9 
   35    33    37    40     9 
   31    41    43    44     9 
   31    41    43    47     9 
   42    41    43    44     9 
   42    41    43    47     9 
   41    43    44    45     9 
   41    43    44    46     9 
   41    43    44    52     9 
   47    43    44    45     9 
   47    43    44    46     9 
   47    43    44    52     9 
   41    43    47    48     9 
   41    43    47    49     9 
   41    43    47    55     9 
   44    43    47    48     9 
   44    43    47    49     9 
   44    43    47    55     9 
   43    44    52    49     9 
   43    44    52    53     9 
   43    44    52    54     9 
   45    44    52    49     9 
   45    44    52    53     9 
   45    44    52    54     9 
   46    44    52    49     9 
   46    44    52    53     9 
   46    44    52    54     9 
   43    47    49    50     9 
   43    47    49    51     9 
   43    47    49    52     9 
   48    47    49    50     9 
   48    47    49    51     9 
   48    47    49    52     9 
   55    47    49    50     9 
   55    47    49    51     9 
   55    47    49    52     9 
   43    47    55    56     9 
   43    47    55    57     9 
   48    47    55    56     9 
   48    47    55    57     9 
   49    47    55    56     9 
   49    47    55    57     9 
   47    49    52    44     9 
   47    49    52    53     9 
   47    49    52    54     9 
   50    49    52    44     9 
   50    49    52    53     9 
   50    49    52    54     9 
   51    49    52    44     9 
   51    49    52    53     9 
   51    49    52    54     9 
   47    55    57    58     9 
   47    55    57    61     9 
   56    55    57    58     9 
   56    55    57    61     9 
   55    57    58    59     9 
   55    57    58    60     9 
   55    57    58    66     9 
   61    57    58    59     9 
   61    57    58    60     9 
   61    57    58    66     9 
   55    57    61    62     9 
   55    57    61    63     9 
   55    57    61    69     9 
   58    57    61    62     9 
   58    57    61    63     9 
   58    57    61    69     9 
   57    58    66    63     9 
   57    58    66    67     9 
   57    58    66    68     9 
   59    58    66    63     9 
   59    58    66    67     9 
   59    58    66    68     9 
   60    58    66    63     9 
   60    58    66    67     9 
   60    58    66    68     9 
   57    61    63    64     9 
   57    61    63    65     9 
   57    61    63    66     9 
   62    61    63    64     9 
   62    61    63    65     9 
   62    61    63    66     9 
   69    61    63    64     9 
   69    61    63    65     9 
   69    61    63    66     9 
   57    61    69    70     9 
   57    61    69    71     9 
   62    61    69    70     9 
   62    61    69    71     9 
   63    61    69    70     9 
   63    61    69    71     9 
   61    63    66    58     9 
   61    63    66    67     9 
   61    63    66    68     9 
   64    63    66    58     9 
   64    63    66    67     9 
   64    63    66    68     9 
   65    63    66    58     9 
   65    63    66    67     9 
   65    63    66    68     9 
   61    69    71    72     9 
   61    69    71    73     9 
   70    69    71    72     9 
   70    69    71    73     9 
   69    71    73    74     9 
   69    71    73    75     9 
   69    71    73    85     9 
   72    71    73    74     9 
   72    71    73    75     9 
   72    71    73    85     9 
   71    73    75    76     9 
   71    73    75    77     9 
   71    73    75    81     9 
   74    73    75    76     9 
   74    73    75    77     9 
   74    73    75    81     9 
   85    73    75    76     9 
   85    73    75    77     9 
   85    73    75    81     9 
   71    73    85    86     9 
   71    73    85    87     9 
   74    73    85    86     9 
   74    73    85    87     9 
   75    73    85    86     9 
   75    73    85    87     9 
   73    75    77    78     9 
   73    75    77    79     9 
   73    75    77    80     9 
   76    75    77    78     9 
   76    75    77    79     9 
   76    75    77    80     9 
   81    75    77    78     9 
   81    75    77    79     9 
   81    75    77    80     9 
   73    75    81    82     9 
   73    75    81    83     9 
   73    75    81    84     9 
   76    75    81    82     9 
   76    75    81    83     9 
   76    75    81    84     9 
   77    75    81    82     9 
   77    75    81    83     9 
   77    75    81    84     9 
   73    85    87    88     9 
   73    85    87    89     9 
   86    85    87    88     9 
   86    85    87    89     9 
   85    87    89    90     9 
   85    87    89    91     9 
   85    87    89    92     9 
   88    87    89    90     9 
   88    87    89    91     9 
   88    87    89    92     9 
   87    89    92    93     9 
   87    89    92    96     9 
   90    89    92    93     9 
   90    89    92    96     9 
   91    89    92    93     9 
   91    89    92    96     9 
   89    92    93    94     9 
   89    92    93    95     9 
   96    92    93    94     9 
   96    92    93    95     9 

[ dihedrals ]
;  ai    aj    ak    al funct            c0            c1            c2            c3
    5     1     7     6     2 
    7     5     9     8     2 
   15     9    17    16     2 
   17    15    19    18     2 
   24    21    26    25     2 
   27    19    29    28     2 
   29    27    31    30     2 
   41    31    43    42     2 
   43    41    47    44     2 
   55    47    57    56     2 
   57    55    61    58     2 
   69    61    71    70     2 
   71    69    73    72     2 
   85    73    87    86     2 
   87    85    89    88     2 
   92    89    93    96     2 
   92    93    89    96     2 
   93    92    95    94     2 
   93    92    94    95     2 

[ cmap ]
;  ai    aj    ak    al    am funct
    5     7     9    15    17     1 
   15    17    19    27    29     1 
   27    29    31    41    43     1 
   41    43    47    55    57     1 
   55    57    61    69    71     1 
   69    71    73    85    87     1 

; Include Position restraint file
#ifdef POSRES
#include "posre.itp"
#endif

; Include water topology
#include "charmm36-nov2018.ff/tip3p.itp"

#ifdef POSRES_WATER
; Position restraint for each water oxygen
[ position_restraints ]
;  i funct       fcx        fcy        fcz
   1    1       1000       1000       1000
#endif

; Include topology for ions
#include "charmm36-nov2018.ff/ions.itp"

[ system ]
; Name
Protein in water

[ molecules ]
; Compound        #mols
Protein             1
SOL         1159
NA               4
CL               3
