PSF EXT CMAP CHEQ XPLOR

         2 !NTITLE
* ADTPPVG : WH5: WAAAH+ PEPTIDE                                                 
*  DATE:     5/31/24     14:35:51      CREATED BY USER: jinyan                  

        96 !NATOM
         1 ADTPPVG  43       ALA      CAY      CT3     -0.270000       12.0110           0   0.00000     -0.301140E-02
         2 ADTPPVG  43       ALA      HY1      HA       0.900000E-01   1.00800           0   0.00000     -0.301140E-02
         3 ADTPPVG  43       ALA      HY2      HA       0.900000E-01   1.00800           0   0.00000     -0.301140E-02
         4 ADTPPVG  43       ALA      HY3      HA       0.900000E-01   1.00800           0   0.00000     -0.301140E-02
         5 ADTPPVG  43       ALA      CY       C        0.510000       12.0110           0   0.00000     -0.301140E-02
         6 ADTPPVG  43       ALA      OY       O       -0.510000       15.9990           0   0.00000     -0.301140E-02
         7 ADTPPVG  43       ALA      N        NH1     -0.470000       14.0070           0   0.00000     -0.301140E-02
         8 ADTPPVG  43       ALA      HN       H        0.310000       1.00800           0   0.00000     -0.301140E-02
         9 ADTPPVG  43       ALA      CA       CT1      0.700000E-01   12.0110           0   0.00000     -0.301140E-02
        10 ADTPPVG  43       ALA      HA       HB       0.900000E-01   1.00800           0   0.00000     -0.301140E-02
        11 ADTPPVG  43       ALA      CB       CT3     -0.270000       12.0110           0   0.00000     -0.301140E-02
        12 ADTPPVG  43       ALA      HB1      HA       0.900000E-01   1.00800           0   0.00000     -0.301140E-02
        13 ADTPPVG  43       ALA      HB2      HA       0.900000E-01   1.00800           0   0.00000     -0.301140E-02
        14 ADTPPVG  43       ALA      HB3      HA       0.900000E-01   1.00800           0   0.00000     -0.301140E-02
        15 ADTPPVG  43       ALA      C        C        0.510000       12.0110           0   0.00000     -0.301140E-02
        16 ADTPPVG  43       ALA      O        O       -0.510000       15.9990           0   0.00000     -0.301140E-02
        17 ADTPPVG  44       ASP      N        NH1     -0.470000       14.0070           0   0.00000     -0.301140E-02
        18 ADTPPVG  44       ASP      HN       H        0.310000       1.00800           0   0.00000     -0.301140E-02
        19 ADTPPVG  44       ASP      CA       CT1      0.700000E-01   12.0110           0   0.00000     -0.301140E-02
        20 ADTPPVG  44       ASP      HA       HB       0.900000E-01   1.00800           0   0.00000     -0.301140E-02
        21 ADTPPVG  44       ASP      CB       CT2     -0.280000       12.0110           0   0.00000     -0.301140E-02
        22 ADTPPVG  44       ASP      HB1      HA       0.900000E-01   1.00800           0   0.00000     -0.301140E-02
        23 ADTPPVG  44       ASP      HB2      HA       0.900000E-01   1.00800           0   0.00000     -0.301140E-02
        24 ADTPPVG  44       ASP      CG       CC       0.620000       12.0110           0   0.00000     -0.301140E-02
        25 ADTPPVG  44       ASP      OD1      OC      -0.760000       15.9990           0   0.00000     -0.301140E-02
        26 ADTPPVG  44       ASP      OD2      OC      -0.760000       15.9990           0   0.00000     -0.301140E-02
        27 ADTPPVG  44       ASP      C        C        0.510000       12.0110           0   0.00000     -0.301140E-02
        28 ADTPPVG  44       ASP      O        O       -0.510000       15.9990           0   0.00000     -0.301140E-02
        29 ADTPPVG  45       THR      N        NH1     -0.470000       14.0070           0   0.00000     -0.301140E-02
        30 ADTPPVG  45       THR      HN       H        0.310000       1.00800           0   0.00000     -0.301140E-02
        31 ADTPPVG  45       THR      CA       CT1      0.700000E-01   12.0110           0   0.00000     -0.301140E-02
        32 ADTPPVG  45       THR      HA       HB       0.900000E-01   1.00800           0   0.00000     -0.301140E-02
        33 ADTPPVG  45       THR      CB       CT1      0.140000       12.0110           0   0.00000     -0.301140E-02
        34 ADTPPVG  45       THR      HB       HA       0.900000E-01   1.00800           0   0.00000     -0.301140E-02
        35 ADTPPVG  45       THR      OG1      OH1     -0.660000       15.9990           0   0.00000     -0.301140E-02
        36 ADTPPVG  45       THR      HG1      H        0.430000       1.00800           0   0.00000     -0.301140E-02
        37 ADTPPVG  45       THR      CG2      CT3     -0.270000       12.0110           0   0.00000     -0.301140E-02
        38 ADTPPVG  45       THR      HG21     HA       0.900000E-01   1.00800           0   0.00000     -0.301140E-02
        39 ADTPPVG  45       THR      HG22     HA       0.900000E-01   1.00800           0   0.00000     -0.301140E-02
        40 ADTPPVG  45       THR      HG23     HA       0.900000E-01   1.00800           0   0.00000     -0.301140E-02
        41 ADTPPVG  45       THR      C        C        0.510000       12.0110           0   0.00000     -0.301140E-02
        42 ADTPPVG  45       THR      O        O       -0.510000       15.9990           0   0.00000     -0.301140E-02
        43 ADTPPVG  46       PRO      N        N       -0.290000       14.0070           0   0.00000     -0.301140E-02
        44 ADTPPVG  46       PRO      CD       CP3       0.00000       12.0110           0   0.00000     -0.301140E-02
        45 ADTPPVG  46       PRO      HD1      HA       0.900000E-01   1.00800           0   0.00000     -0.301140E-02
        46 ADTPPVG  46       PRO      HD2      HA       0.900000E-01   1.00800           0   0.00000     -0.301140E-02
        47 ADTPPVG  46       PRO      CA       CP1      0.200000E-01   12.0110           0   0.00000     -0.301140E-02
        48 ADTPPVG  46       PRO      HA       HB       0.900000E-01   1.00800           0   0.00000     -0.301140E-02
        49 ADTPPVG  46       PRO      CB       CP2     -0.180000       12.0110           0   0.00000     -0.301140E-02
        50 ADTPPVG  46       PRO      HB1      HA       0.900000E-01   1.00800           0   0.00000     -0.301140E-02
        51 ADTPPVG  46       PRO      HB2      HA       0.900000E-01   1.00800           0   0.00000     -0.301140E-02
        52 ADTPPVG  46       PRO      CG       CP2     -0.180000       12.0110           0   0.00000     -0.301140E-02
        53 ADTPPVG  46       PRO      HG1      HA       0.900000E-01   1.00800           0   0.00000     -0.301140E-02
        54 ADTPPVG  46       PRO      HG2      HA       0.900000E-01   1.00800           0   0.00000     -0.301140E-02
        55 ADTPPVG  46       PRO      C        C        0.510000       12.0110           0   0.00000     -0.301140E-02
        56 ADTPPVG  46       PRO      O        O       -0.510000       15.9990           0   0.00000     -0.301140E-02
        57 ADTPPVG  47       PRO      N        N       -0.290000       14.0070           0   0.00000     -0.301140E-02
        58 ADTPPVG  47       PRO      CD       CP3       0.00000       12.0110           0   0.00000     -0.301140E-02
        59 ADTPPVG  47       PRO      HD1      HA       0.900000E-01   1.00800           0   0.00000     -0.301140E-02
        60 ADTPPVG  47       PRO      HD2      HA       0.900000E-01   1.00800           0   0.00000     -0.301140E-02
        61 ADTPPVG  47       PRO      CA       CP1      0.200000E-01   12.0110           0   0.00000     -0.301140E-02
        62 ADTPPVG  47       PRO      HA       HB       0.900000E-01   1.00800           0   0.00000     -0.301140E-02
        63 ADTPPVG  47       PRO      CB       CP2     -0.180000       12.0110           0   0.00000     -0.301140E-02
        64 ADTPPVG  47       PRO      HB1      HA       0.900000E-01   1.00800           0   0.00000     -0.301140E-02
        65 ADTPPVG  47       PRO      HB2      HA       0.900000E-01   1.00800           0   0.00000     -0.301140E-02
        66 ADTPPVG  47       PRO      CG       CP2     -0.180000       12.0110           0   0.00000     -0.301140E-02
        67 ADTPPVG  47       PRO      HG1      HA       0.900000E-01   1.00800           0   0.00000     -0.301140E-02
        68 ADTPPVG  47       PRO      HG2      HA       0.900000E-01   1.00800           0   0.00000     -0.301140E-02
        69 ADTPPVG  47       PRO      C        C        0.510000       12.0110           0   0.00000     -0.301140E-02
        70 ADTPPVG  47       PRO      O        O       -0.510000       15.9990           0   0.00000     -0.301140E-02
        71 ADTPPVG  48       VAL      N        NH1     -0.470000       14.0070           0   0.00000     -0.301140E-02
        72 ADTPPVG  48       VAL      HN       H        0.310000       1.00800           0   0.00000     -0.301140E-02
        73 ADTPPVG  48       VAL      CA       CT1      0.700000E-01   12.0110           0   0.00000     -0.301140E-02
        74 ADTPPVG  48       VAL      HA       HB       0.900000E-01   1.00800           0   0.00000     -0.301140E-02
        75 ADTPPVG  48       VAL      CB       CT1     -0.900000E-01   12.0110           0   0.00000     -0.301140E-02
        76 ADTPPVG  48       VAL      HB       HA       0.900000E-01   1.00800           0   0.00000     -0.301140E-02
        77 ADTPPVG  48       VAL      CG1      CT3     -0.270000       12.0110           0   0.00000     -0.301140E-02
        78 ADTPPVG  48       VAL      HG11     HA       0.900000E-01   1.00800           0   0.00000     -0.301140E-02
        79 ADTPPVG  48       VAL      HG12     HA       0.900000E-01   1.00800           0   0.00000     -0.301140E-02
        80 ADTPPVG  48       VAL      HG13     HA       0.900000E-01   1.00800           0   0.00000     -0.301140E-02
        81 ADTPPVG  48       VAL      CG2      CT3     -0.270000       12.0110           0   0.00000     -0.301140E-02
        82 ADTPPVG  48       VAL      HG21     HA       0.900000E-01   1.00800           0   0.00000     -0.301140E-02
        83 ADTPPVG  48       VAL      HG22     HA       0.900000E-01   1.00800           0   0.00000     -0.301140E-02
        84 ADTPPVG  48       VAL      HG23     HA       0.900000E-01   1.00800           0   0.00000     -0.301140E-02
        85 ADTPPVG  48       VAL      C        C        0.510000       12.0110           0   0.00000     -0.301140E-02
        86 ADTPPVG  48       VAL      O        O       -0.510000       15.9990           0   0.00000     -0.301140E-02
        87 ADTPPVG  49       GLY      N        NH1     -0.470000       14.0070           0   0.00000     -0.301140E-02
        88 ADTPPVG  49       GLY      HN       H        0.310000       1.00800           0   0.00000     -0.301140E-02
        89 ADTPPVG  49       GLY      CA       CT2     -0.200000E-01   12.0110           0   0.00000     -0.301140E-02
        90 ADTPPVG  49       GLY      HA1      HB       0.900000E-01   1.00800           0   0.00000     -0.301140E-02
        91 ADTPPVG  49       GLY      HA2      HB       0.900000E-01   1.00800           0   0.00000     -0.301140E-02
        92 ADTPPVG  49       GLY      C        CC       0.550000       12.0110           0   0.00000     -0.301140E-02
        93 ADTPPVG  49       GLY      O        O       -0.550000       15.9990           0   0.00000     -0.301140E-02
        94 ADTPPVG  49       GLY      NT       NH2     -0.620000       14.0070           0   0.00000     -0.301140E-02
        95 ADTPPVG  49       GLY      HT1      H        0.320000       1.00800           0   0.00000     -0.301140E-02
        96 ADTPPVG  49       GLY      HT2      H        0.300000       1.00800           0   0.00000     -0.301140E-02

        97 !NBOND: bonds
         5         1         5         7         1         2         1         3
         1         4         6         5        11         9         7         8
         7         9        15         9        15        17         9        10
        11        12        11        13        11        14        16        15
        21        19        24        21        26        24        17        18
        17        19        27        19        27        29        19        20
        21        22        21        23        28        27        24        25
        33        31        35        33        37        33        29        30
        29        31        41        31        41        43        31        32
        33        34        35        36        37        38        37        39
        37        40        42        41        55        47        55        57
        43        47        47        49        49        52        52        44
        43        44        48        47        53        52        54        52
        45        44        46        44        50        49        51        49
        56        55        69        61        69        71        57        61
        61        63        63        66        66        58        57        58
        62        61        67        66        68        66        59        58
        60        58        64        63        65        63        70        69
        75        73        77        75        81        75        71        72
        71        73        85        73        85        87        73        74
        75        76        77        78        77        79        77        80
        81        82        81        83        81        84        86        85
        87        88        87        89        92        89        89        90
        89        91        93        92        92        94        94        95
        94        96

       178 !NTHETA: angles
         2         1         3         2         1         4         2         1         5
         3         1         4         3         1         5         4         1         5
         1         5         6         1         5         7         6         5         7
         5         7         8         5         7         9         8         7         9
         7         9        10         7         9        11         7         9        15
        10         9        11        10         9        15        11         9        15
         9        11        12         9        11        13         9        11        14
        12        11        13        12        11        14        13        11        14
         9        15        16         9        15        17        16        15        17
        15        17        18        15        17        19        18        17        19
        17        19        20        17        19        21        17        19        27
        20        19        21        20        19        27        21        19        27
        19        21        22        19        21        23        19        21        24
        22        21        23        22        21        24        23        21        24
        21        24        25        21        24        26        25        24        26
        19        27        28        19        27        29        28        27        29
        27        29        30        27        29        31        30        29        31
        29        31        32        29        31        33        29        31        41
        32        31        33        32        31        41        33        31        41
        31        33        34        31        33        35        31        33        37
        34        33        35        34        33        37        35        33        37
        33        35        36        33        37        38        33        37        39
        33        37        40        38        37        39        38        37        40
        39        37        40        31        41        42        31        41        43
        42        41        43        41        43        44        41        43        47
        44        43        47        43        44        45        43        44        46
        43        44        52        45        44        46        45        44        52
        46        44        52        43        47        48        43        47        49
        43        47        55        48        47        49        48        47        55
        49        47        55        47        49        50        47        49        51
        47        49        52        50        49        51        50        49        52
        51        49        52        44        52        49        44        52        53
        44        52        54        49        52        53        49        52        54
        53        52        54        47        55        56        47        55        57
        56        55        57        55        57        58        55        57        61
        58        57        61        57        58        59        57        58        60
        57        58        66        59        58        60        59        58        66
        60        58        66        57        61        62        57        61        63
        57        61        69        62        61        63        62        61        69
        63        61        69        61        63        64        61        63        65
        61        63        66        64        63        65        64        63        66
        65        63        66        58        66        63        58        66        67
        58        66        68        63        66        67        63        66        68
        67        66        68        61        69        70        61        69        71
        70        69        71        69        71        72        69        71        73
        72        71        73        71        73        74        71        73        75
        71        73        85        74        73        75        74        73        85
        75        73        85        73        75        76        73        75        77
        73        75        81        76        75        77        76        75        81
        77        75        81        75        77        78        75        77        79
        75        77        80        78        77        79        78        77        80
        79        77        80        75        81        82        75        81        83
        75        81        84        82        81        83        82        81        84
        83        81        84        73        85        86        73        85        87
        86        85        87        85        87        88        85        87        89
        88        87        89        87        89        90        87        89        91
        87        89        92        90        89        91        90        89        92
        91        89        92        89        92        93        89        92        94
        93        92        94        92        94        95        92        94        96
        95        94        96

       260 !NPHI: dihedrals
         1         5         7         8         1         5         7         9
         2         1         5         6         2         1         5         7
         3         1         5         6         3         1         5         7
         4         1         5         6         4         1         5         7
         5         7         9        10         5         7         9        11
         5         7         9        15         6         5         7         8
         6         5         7         9         7         9        11        12
         7         9        11        13         7         9        11        14
         7         9        15        16         7         9        15        17
         8         7         9        10         8         7         9        11
         8         7         9        15         9        15        17        18
         9        15        17        19        10         9        11        12
        10         9        11        13        10         9        11        14
        10         9        15        16        10         9        15        17
        11         9        15        16        11         9        15        17
        12        11         9        15        13        11         9        15
        14        11         9        15        15        17        19        20
        15        17        19        21        15        17        19        27
        16        15        17        18        16        15        17        19
        17        19        21        22        17        19        21        23
        17        19        21        24        17        19        27        28
        17        19        27        29        18        17        19        20
        18        17        19        21        18        17        19        27
        19        21        24        25        19        21        24        26
        19        27        29        30        19        27        29        31
        20        19        21        22        20        19        21        23
        20        19        21        24        20        19        27        28
        20        19        27        29        21        19        27        28
        21        19        27        29        22        21        19        27
        22        21        24        25        22        21        24        26
        23        21        19        27        23        21        24        25
        23        21        24        26        24        21        19        27
        27        29        31        32        27        29        31        33
        27        29        31        41        28        27        29        30
        28        27        29        31        29        31        33        34
        29        31        33        35        29        31        33        37
        29        31        41        42        29        31        41        43
        30        29        31        32        30        29        31        33
        30        29        31        41        31        33        35        36
        31        33        37        38        31        33        37        39
        31        33        37        40        31        41        43        44
        31        41        43        47        32        31        33        34
        32        31        33        35        32        31        33        37
        32        31        41        42        32        31        41        43
        33        31        41        42        33        31        41        43
        34        33        31        41        34        33        35        36
        34        33        37        38        34        33        37        39
        34        33        37        40        35        33        31        41
        35        33        37        38        35        33        37        39
        35        33        37        40        36        35        33        37
        37        33        31        41        41        43        44        45
        41        43        44        46        41        43        44        52
        41        43        47        48        41        43        47        49
        41        43        47        55        42        41        43        44
        42        41        43        47        43        44        52        49
        43        44        52        53        43        44        52        54
        43        47        49        50        43        47        49        51
        43        47        49        52        43        47        55        56
        43        47        55        57        44        43        47        48
        44        43        47        49        44        43        47        55
        44        52        49        47        44        52        49        50
        44        52        49        51        45        44        43        47
        45        44        52        49        45        44        52        53
        45        44        52        54        46        44        43        47
        46        44        52        49        46        44        52        53
        46        44        52        54        47        43        44        52
        47        49        52        53        47        49        52        54
        47        55        57        58        47        55        57        61
        48        47        49        50        48        47        49        51
        48        47        49        52        48        47        55        56
        48        47        55        57        49        47        55        56
        49        47        55        57        50        49        47        55
        50        49        52        53        50        49        52        54
        51        49        47        55        51        49        52        53
        51        49        52        54        52        49        47        55
        55        57        58        59        55        57        58        60
        55        57        58        66        55        57        61        62
        55        57        61        63        55        57        61        69
        56        55        57        58        56        55        57        61
        57        58        66        63        57        58        66        67
        57        58        66        68        57        61        63        64
        57        61        63        65        57        61        63        66
        57        61        69        70        57        61        69        71
        58        57        61        62        58        57        61        63
        58        57        61        69        58        66        63        61
        58        66        63        64        58        66        63        65
        59        58        57        61        59        58        66        63
        59        58        66        67        59        58        66        68
        60        58        57        61        60        58        66        63
        60        58        66        67        60        58        66        68
        61        57        58        66        61        63        66        67
        61        63        66        68        61        69        71        72
        61        69        71        73        62        61        63        64
        62        61        63        65        62        61        63        66
        62        61        69        70        62        61        69        71
        63        61        69        70        63        61        69        71
        64        63        61        69        64        63        66        67
        64        63        66        68        65        63        61        69
        65        63        66        67        65        63        66        68
        66        63        61        69        69        71        73        74
        69        71        73        75        69        71        73        85
        70        69        71        72        70        69        71        73
        71        73        75        76        71        73        75        77
        71        73        75        81        71        73        85        86
        71        73        85        87        72        71        73        74
        72        71        73        75        72        71        73        85
        73        75        77        78        73        75        77        79
        73        75        77        80        73        75        81        82
        73        75        81        83        73        75        81        84
        73        85        87        88        73        85        87        89
        74        73        75        76        74        73        75        77
        74        73        75        81        74        73        85        86
        74        73        85        87        75        73        85        86
        75        73        85        87        76        75        73        85
        76        75        77        78        76        75        77        79
        76        75        77        80        76        75        81        82
        76        75        81        83        76        75        81        84
        77        75        73        85        77        75        81        82
        77        75        81        83        77        75        81        84
        78        77        75        81        79        77        75        81
        80        77        75        81        81        75        73        85
        85        87        89        90        85        87        89        91
        85        87        89        92        86        85        87        88
        86        85        87        89        87        89        92        93
        87        89        92        94        88        87        89        90
        88        87        89        91        88        87        89        92
        89        92        94        95        89        92        94        96
        90        89        92        93        90        89        92        94
        91        89        92        93        91        89        92        94
        93        92        94        95        93        92        94        96

        19 !NIMPHI: impropers
         5         1         7         6         7         5         9         8
        15         9        17        16        17        15        19        18
        27        19        29        28        24        21        26        25
        29        27        31        30        41        31        43        42
        43        41        47        44        55        47        57        56
        57        55        61        58        69        61        71        70
        71        69        73        72        85        73        87        86
        87        85        89        88        92        94        89        93
        92        89        94        93        94        92        95        96
        94        92        96        95

         8 !NDON: donors
         7         8        17        18        29        30        35        36
        71        72        87        88        94        95        94        96

        11 !NACC: acceptors
         6         5        16        15        25        24        26        24
        28        27        35         0        42        41        56        55
        70        69        86        85        93        92

         0 !NNB

         0         0         0         0         0         0         0         0
         0         0         0         0         0         0         0         0
         0         0         0         0         0         0         0         0
         0         0         0         0         0         0         0         0
         0         0         0         0         0         0         0         0
         0         0         0         0         0         0         0         0
         0         0         0         0         0         0         0         0
         0         0         0         0         0         0         0         0
         0         0         0         0         0         0         0         0
         0         0         0         0         0         0         0         0
         0         0         0         0         0         0         0         0
         0         0         0         0         0         0         0         0

        28         0 !NGRP NST2
         0         1         0         4         1         0         6         1         0
        10         1         0        14         1         0        16         1         0
        20         2         0        26         1         0        28         1         0
        32         1         0        36         1         0        40         1         0
        42         1         0        48         1         0        51         1         0
        54         1         0        56         1         0        62         1         0
        65         1         0        68         1         0        70         1         0
        74         1         0        76         1         0        80         1         0
        84         1         0        86         1         0        91         1         0
        93         1         0

         1 !MOLNT
         1         1         1         1         1         1         1         1
         1         1         1         1         1         1         1         1
         1         1         1         1         1         1         1         1
         1         1         1         1         1         1         1         1
         1         1         1         1         1         1         1         1
         1         1         1         1         1         1         1         1
         1         1         1         1         1         1         1         1
         1         1         1         1         1         1         1         1
         1         1         1         1         1         1         1         1
         1         1         1         1         1         1         1         1
         1         1         1         1         1         1         1         1
         1         1         1         1         1         1         1         1

         0         0 !NUMLP NUMLPH

         6 !NCRTERM: cross-terms
         5         7         9        15         7         9        15        17
        15        17        19        27        17        19        27        29
        27        29        31        41        29        31        41        43
        41        43        47        55        43        47        55        57
        55        57        61        69        57        61        69        71
        69        71        73        85        71        73        85        87
