* ADTPPVG : WH5: WAAAH+ PEPTIDE  ENERGY MINIMIZED
*  DATE:     5/31/24     14:35:51      CREATED BY USER: jinyan
*
        96  EXT
         1         1  ALA       CAY            -1.8933702582        0.5159924785        0.8647507475  ADTPPVG   43              0.0000000000
         2         1  ALA       HY1            -2.0608003037        0.8896894422        1.8976840129  ADTPPVG   43              0.0000000000
         3         1  ALA       HY2            -2.6683222147       -0.2456368662        0.6369179367  ADTPPVG   43              0.0000000000
         4         1  ALA       HY3            -1.9838332721        1.3656313626        0.1559567814  ADTPPVG   43              0.0000000000
         5         1  ALA       CY             -0.5455635242       -0.0940213526        0.7821996447  ADTPPVG   43              0.0000000000
         6         1  ALA       OY             -0.3288006513       -1.2027636973        1.2535412830  ADTPPVG   43              0.0000000000
         7         1  ALA       N               0.4021467543        0.6355371244        0.1921921678  ADTPPVG   43              0.0000000000
         8         1  ALA       HN              0.2031711772        1.5288540399       -0.2078563119  ADTPPVG   43              0.0000000000
         9         1  ALA       CA              1.8009054365        0.3009182367        0.2133926903  ADTPPVG   43              0.0000000000
        10         1  ALA       HA              2.0687447253       -0.0317994383        1.2079214454  ADTPPVG   43              0.0000000000
        11         1  ALA       CB              2.1715560551       -0.7748431834       -0.8340136444  ADTPPVG   43              0.0000000000
        12         1  ALA       HB1             1.8636793391       -0.4623414408       -1.8543141578  ADTPPVG   43              0.0000000000
        13         1  ALA       HB2             1.6397166460       -1.7217262373       -0.5905658224  ADTPPVG   43              0.0000000000
        14         1  ALA       HB3             3.2633120625       -0.9752174052       -0.8300653598  ADTPPVG   43              0.0000000000
        15         1  ALA       C               2.5131678793        1.6077289958       -0.0505526475  ADTPPVG   43              0.0000000000
        16         1  ALA       O               1.9333662062        2.5059943242       -0.6580307812  ADTPPVG   43              0.0000000000
        17         2  ASP       N               3.7629634590        1.7489348074        0.4246298832  ADTPPVG   44              0.0000000000
        18         2  ASP       HN              4.2362784562        1.0164912455        0.9047991570  ADTPPVG   44              0.0000000000
        19         2  ASP       CA              4.5509306743        2.9475112241        0.2691588062  ADTPPVG   44              0.0000000000
        20         2  ASP       HA              4.2430558365        3.4618168834       -0.6328507742  ADTPPVG   44              0.0000000000
        21         2  ASP       CB              4.3798791496        3.8779602679        1.5055911401  ADTPPVG   44              0.0000000000
        22         2  ASP       HB1             4.8508754438        3.4357787931        2.4028417896  ADTPPVG   44              0.0000000000
        23         2  ASP       HB2             3.2956199407        4.0107170077        1.7043544962  ADTPPVG   44              0.0000000000
        24         2  ASP       CG              4.9478255567        5.2691392447        1.2909341807  ADTPPVG   44              0.0000000000
        25         2  ASP       OD1             5.0138547187        6.0207394635        2.2946904652  ADTPPVG   44              0.0000000000
        26         2  ASP       OD2             5.3259229769        5.5843092754        0.1342696895  ADTPPVG   44              0.0000000000
        27         2  ASP       C               5.9830522766        2.4611900131        0.0590765528  ADTPPVG   44              0.0000000000
        28         2  ASP       O               6.2839386271        1.2861010261        0.2808922091  ADTPPVG   44              0.0000000000
        29         3  THR       N               6.8908619520        3.3171313930       -0.4332578444  ADTPPVG   45              0.0000000000
        30         3  THR       HN              6.6474244968        4.3009059125       -0.4912952607  ADTPPVG   45              0.0000000000
        31         3  THR       CA              8.2440454329        2.9048253153       -0.7980485744  ADTPPVG   45              0.0000000000
        32         3  THR       HA              8.5511964911        2.1442015635       -0.0959771078  ADTPPVG   45              0.0000000000
        33         3  THR       CB              8.3105975325        2.3170878683       -2.2173911221  ADTPPVG   45              0.0000000000
        34         3  THR       HB              7.4204789523        1.6515546442       -2.3349921999  ADTPPVG   45              0.0000000000
        35         3  THR       OG1             9.4733906642        1.5282932553       -2.4229546871  ADTPPVG   45              0.0000000000
        36         3  THR       HG1             9.4511841327        1.2908350558       -3.3522846356  ADTPPVG   45              0.0000000000
        37         3  THR       CG2             8.2939546090        3.3819220277       -3.3267287518  ADTPPVG   45              0.0000000000
        38         3  THR       HG21            9.2471434087        3.9509901347       -3.3307523841  ADTPPVG   45              0.0000000000
        39         3  THR       HG22            7.4627012433        4.0992906249       -3.1661770522  ADTPPVG   45              0.0000000000
        40         3  THR       HG23            8.1670069293        2.9044393415       -4.3191548085  ADTPPVG   45              0.0000000000
        41         3  THR       C               9.1719461094        4.0946822111       -0.6377433880  ADTPPVG   45              0.0000000000
        42         3  THR       O               8.7047077752        5.2166802280       -0.8271049335  ADTPPVG   45              0.0000000000
        43         4  PRO       N              10.4559433308        4.0000385433       -0.2817586345  ADTPPVG   46              0.0000000000
        44         4  PRO       CD             11.1123485662        2.7962393558        0.2317133267  ADTPPVG   46              0.0000000000
        45         4  PRO       HD1            10.9054207114        1.9008860471       -0.3940267528  ADTPPVG   46              0.0000000000
        46         4  PRO       HD2            10.7652150731        2.6315113870        1.2771567260  ADTPPVG   46              0.0000000000
        47         4  PRO       CA             11.2807965183        5.1886577387       -0.1047158146  ADTPPVG   46              0.0000000000
        48         4  PRO       HA             10.7279884747        5.8807018444        0.5131605636  ADTPPVG   46              0.0000000000
        49         4  PRO       CB             12.5562998468        4.6586905717        0.5786544174  ADTPPVG   46              0.0000000000
        50         4  PRO       HB1            12.4313259680        4.7610841993        1.6801663705  ADTPPVG   46              0.0000000000
        51         4  PRO       HB2            13.4719843054        5.2022862428        0.2690738628  ADTPPVG   46              0.0000000000
        52         4  PRO       CG             12.5906090561        3.1717274757        0.2124889808  ADTPPVG   46              0.0000000000
        53         4  PRO       HG1            12.9758478237        3.0664959249       -0.8272218227  ADTPPVG   46              0.0000000000
        54         4  PRO       HG2            13.2125721746        2.5736066911        0.9057688638  ADTPPVG   46              0.0000000000
        55         4  PRO       C              11.5692315165        5.8533633072       -1.4469408903  ADTPPVG   46              0.0000000000
        56         4  PRO       O              11.7396473589        5.1304569405       -2.4297097517  ADTPPVG   46              0.0000000000
        57         5  PRO       N              11.5576599926        7.1836328739       -1.5519020380  ADTPPVG   47              0.0000000000
        58         5  PRO       CD             11.6543490898        8.1066586596       -0.4180296445  ADTPPVG   47              0.0000000000
        59         5  PRO       HD1            12.3470795097        7.7313698507        0.3674702558  ADTPPVG   47              0.0000000000
        60         5  PRO       HD2            10.6325901922        8.2525871883        0.0019032909  ADTPPVG   47              0.0000000000
        61         5  PRO       CA             11.5629722773        7.8884655267       -2.8283479835  ADTPPVG   47              0.0000000000
        62         5  PRO       HA             10.6859871972        7.5841683897       -3.3782701576  ADTPPVG   47              0.0000000000
        63         5  PRO       CB             11.4782975479        9.3732047533       -2.4120284374  ADTPPVG   47              0.0000000000
        64         5  PRO       HB1            10.4064675601        9.6475324478       -2.2712526248  ADTPPVG   47              0.0000000000
        65         5  PRO       HB2            11.9340867147       10.0695869615       -3.1441411076  ADTPPVG   47              0.0000000000
        66         5  PRO       CG             12.1647071984        9.4030108835       -1.0443327599  ADTPPVG   47              0.0000000000
        67         5  PRO       HG1            13.2664687116        9.3349792864       -1.1930167381  ADTPPVG   47              0.0000000000
        68         5  PRO       HG2            11.9186341119       10.2937261939       -0.4358755272  ADTPPVG   47              0.0000000000
        69         5  PRO       C              12.7658734502        7.5817280846       -3.7199258146  ADTPPVG   47              0.0000000000
        70         5  PRO       O              13.9051282657        7.8357088348       -3.3280823496  ADTPPVG   47              0.0000000000
        71         6  VAL       N              12.5316057959        7.0928532862       -4.9548545815  ADTPPVG   48              0.0000000000
        72         6  VAL       HN             11.6044236405        6.8696058402       -5.2413691549  ADTPPVG   48              0.0000000000
        73         6  VAL       CA             13.5856583177        6.7875192469       -5.9083964403  ADTPPVG   48              0.0000000000
        74         6  VAL       HA             14.5429114403        6.8214187585       -5.4083298266  ADTPPVG   48              0.0000000000
        75         6  VAL       CB             13.4449718509        5.3991672829       -6.5361802119  ADTPPVG   48              0.0000000000
        76         6  VAL       HB             12.4442380453        5.3039084691       -7.0197400369  ADTPPVG   48              0.0000000000
        77         6  VAL       CG1            14.5356233851        5.1232826370       -7.5950212150  ADTPPVG   48              0.0000000000
        78         6  VAL       HG11           15.5456247400        5.3546673919       -7.1952840188  ADTPPVG   48              0.0000000000
        79         6  VAL       HG12           14.3583362174        5.7069159040       -8.5201673546  ADTPPVG   48              0.0000000000
        80         6  VAL       HG13           14.5189078366        4.0462598666       -7.8736792116  ADTPPVG   48              0.0000000000
        81         6  VAL       CG2            13.5586354293        4.3430809879       -5.4202893204  ADTPPVG   48              0.0000000000
        82         6  VAL       HG21           12.7405224874        4.4542821412       -4.6781397855  ADTPPVG   48              0.0000000000
        83         6  VAL       HG22           14.5289708505        4.4471769986       -4.8887732773  ADTPPVG   48              0.0000000000
        84         6  VAL       HG23           13.4996010283        3.3208867075       -5.8496040085  ADTPPVG   48              0.0000000000
        85         6  VAL       C              13.5875769951        7.8493978561       -6.9863884804  ADTPPVG   48              0.0000000000
        86         6  VAL       O              12.6379969119        7.9929098554       -7.7517274710  ADTPPVG   48              0.0000000000
        87         7  GLY       N              14.6824011910        8.6333904305       -7.0689824443  ADTPPVG   49              0.0000000000
        88         7  GLY       HN             15.4168506545        8.5128523445       -6.4048137900  ADTPPVG   49              0.0000000000
        89         7  GLY       CA             14.8366853201        9.7027801243       -8.0566863368  ADTPPVG   49              0.0000000000
        90         7  GLY       HA1            15.4264309795       10.4763661594       -7.5893848404  ADTPPVG   49              0.0000000000
        91         7  GLY       HA2            13.8665418738       10.0623727372       -8.3728743127  ADTPPVG   49              0.0000000000
        92         7  GLY       C              15.6096746573        9.2957360632       -9.3293363999  ADTPPVG   49              0.0000000000
        93         7  GLY       O              16.1773519986       10.1409983626      -10.0215248109  ADTPPVG   49              0.0000000000
        94         7  GLY       NT             15.6470679833        7.9846045589       -9.6603004525  ADTPPVG   49              0.0000000000
        95         7  GLY       HT1            16.1574526473        7.7366152804      -10.4793577732  ADTPPVG   49              0.0000000000
        96         7  GLY       HT2            15.1123035372        7.3349264484       -9.1286349364  ADTPPVG   49              0.0000000000
