* SSNGNA : WH5: WAAAH+ PEPTIDE  ENERGY MINIMIZED
*  DATE:     5/18/24     11:55:23      CREATED BY USER: jinyan
*
        76  EXT
         1         1  SER       CAY            -1.8608837071        0.5465740477        1.1046811690  SSNGNA    82              0.0000000000
         2         1  SER       HY1            -2.2624534773        0.9534478406        2.0570999872  SSNGNA    82              0.0000000000
         3         1  SER       HY2            -2.2118336361       -0.5007378194        0.9842073693  SSNGNA    82              0.0000000000
         4         1  SER       HY3            -2.2420496380        1.1667125714        0.2651843625  SSNGNA    82              0.0000000000
         5         1  SER       CY             -0.3802057348        0.5910810235        1.1334739422  SSNGNA    82              0.0000000000
         6         1  SER       OY              0.2239257757        1.0689432784        2.0848839715  SSNGNA    82              0.0000000000
         7         1  SER       N               0.2458399207        0.0656955080        0.0695344791  SSNGNA    82              0.0000000000
         8         1  SER       HN             -0.3023023815       -0.2962544140       -0.6727589479  SSNGNA    82              0.0000000000
         9         1  SER       CA              1.6885699527        0.1384974086       -0.1323464102  SSNGNA    82              0.0000000000
        10         1  SER       HA              2.1515086935       -0.2495376037        0.7656912378  SSNGNA    82              0.0000000000
        11         1  SER       CB              2.1614133904       -0.7301012538       -1.3270295479  SSNGNA    82              0.0000000000
        12         1  SER       HB1             1.7974548518       -0.2879945132       -2.2812130384  SSNGNA    82              0.0000000000
        13         1  SER       HB2             1.7139007937       -1.7423677314       -1.2187057415  SSNGNA    82              0.0000000000
        14         1  SER       OG              3.5821952775       -0.8659137168       -1.3524807279  SSNGNA    82              0.0000000000
        15         1  SER       HG1             3.8209133646       -1.3536774856       -2.1480956570  SSNGNA    82              0.0000000000
        16         1  SER       C               2.1823142542        1.5668084728       -0.3100467227  SSNGNA    82              0.0000000000
        17         1  SER       O               1.5016176372        2.4082782549       -0.8929611236  SSNGNA    82              0.0000000000
        18         2  SER       N               3.3870573232        1.8777165069        0.1990550656  SSNGNA    83              0.0000000000
        19         2  SER       HN              3.9879049814        1.1779028058        0.5835166640  SSNGNA    83              0.0000000000
        20         2  SER       CA              3.9163002226        3.2239323351        0.1617783845  SSNGNA    83              0.0000000000
        21         2  SER       HA              3.6731089783        3.6705303781       -0.7922192670  SSNGNA    83              0.0000000000
        22         2  SER       CB              3.3620910691        4.1273920229        1.3003363696  SSNGNA    83              0.0000000000
        23         2  SER       HB1             3.7019745080        3.7466516599        2.2892878710  SSNGNA    83              0.0000000000
        24         2  SER       HB2             2.2492906628        4.0685237259        1.2727906436  SSNGNA    83              0.0000000000
        25         2  SER       OG              3.7506714175        5.4930066118        1.1290193440  SSNGNA    83              0.0000000000
        26         2  SER       HG1             3.3187389846        6.0098287372        1.8180919777  SSNGNA    83              0.0000000000
        27         2  SER       C               5.4220029789        3.1315053927        0.2457883539  SSNGNA    83              0.0000000000
        28         2  SER       O               5.9849961866        2.1044256010        0.6250517222  SSNGNA    83              0.0000000000
        29         3  ASN       N               6.1229670219        4.2027966416       -0.1538662852  SSNGNA    84              0.0000000000
        30         3  ASN       HN              5.6543221483        5.0699349614       -0.3405648943  SSNGNA    84              0.0000000000
        31         3  ASN       CA              7.5612668806        4.2391855991       -0.1918427509  SSNGNA    84              0.0000000000
        32         3  ASN       HA              7.9176320951        3.8396042515        0.7509323681  SSNGNA    84              0.0000000000
        33         3  ASN       CB              8.1384326741        3.4425303235       -1.4005851119  SSNGNA    84              0.0000000000
        34         3  ASN       HB1             8.1392385878        4.0539110006       -2.3235426324  SSNGNA    84              0.0000000000
        35         3  ASN       HB2             7.5104505887        2.5453504104       -1.5872140106  SSNGNA    84              0.0000000000
        36         3  ASN       CG              9.5576809514        2.9819063861       -1.0930417470  SSNGNA    84              0.0000000000
        37         3  ASN       OD1            10.5370382409        3.6568841035       -1.4058013887  SSNGNA    84              0.0000000000
        38         3  ASN       ND2             9.6810549114        1.8209821369       -0.4107334403  SSNGNA    84              0.0000000000
        39         3  ASN       HD21           10.6022137443        1.5368287593       -0.1592821578  SSNGNA    84              0.0000000000
        40         3  ASN       HD22            8.8645947898        1.3089647957       -0.1533896398  SSNGNA    84              0.0000000000
        41         3  ASN       C               7.9484678634        5.7076165397       -0.2332024361  SSNGNA    84              0.0000000000
        42         3  ASN       O               7.0942281517        6.5832736540       -0.3286483068  SSNGNA    84              0.0000000000
        43         4  GLY       N               9.2475960221        6.0202234092       -0.1335828374  SSNGNA    85              0.0000000000
        44         4  GLY       HN              9.9555240209        5.3108480599       -0.1032835167  SSNGNA    85              0.0000000000
        45         4  GLY       CA              9.7000506820        7.3939890503       -0.0928475083  SSNGNA    85              0.0000000000
        46         4  GLY       HA1             9.1760982562        7.9142884979        0.6947341081  SSNGNA    85              0.0000000000
        47         4  GLY       HA2             9.5670256761        7.8281052857       -1.0747674649  SSNGNA    85              0.0000000000
        48         4  GLY       C              11.1573388414        7.4001416534        0.2364823298  SSNGNA    85              0.0000000000
        49         4  GLY       O              11.6591983605        6.5291000066        0.9407617187  SSNGNA    85              0.0000000000
        50         5  ASN       N              11.8952124863        8.3846879595       -0.2884659324  SSNGNA    86              0.0000000000
        51         5  ASN       HN             11.5013368037        9.1249706119       -0.8303779714  SSNGNA    86              0.0000000000
        52         5  ASN       CA             13.3183914048        8.4641152323       -0.0952184600  SSNGNA    86              0.0000000000
        53         5  ASN       HA             13.5466896757        8.1858234328        0.9277915470  SSNGNA    86              0.0000000000
        54         5  ASN       CB             14.0565198049        7.5562230384       -1.1251509996  SSNGNA    86              0.0000000000
        55         5  ASN       HB1            14.1501567048        8.0615977189       -2.1062200806  SSNGNA    86              0.0000000000
        56         5  ASN       HB2            13.4479993586        6.6387382390       -1.2798899886  SSNGNA    86              0.0000000000
        57         5  ASN       CG             15.4383141883        7.1529195792       -0.6182820243  SSNGNA    86              0.0000000000
        58         5  ASN       OD1            16.2960658703        7.9919517693       -0.3396218848  SSNGNA    86              0.0000000000
        59         5  ASN       ND2            15.6665142075        5.8255297359       -0.4790684527  SSNGNA    86              0.0000000000
        60         5  ASN       HD21           16.5576060400        5.5468779887       -0.1359679104  SSNGNA    86              0.0000000000
        61         5  ASN       HD22           14.9439607742        5.1715582539       -0.6933602311  SSNGNA    86              0.0000000000
        62         5  ASN       C              13.6611696893        9.9297585952       -0.2733684316  SSNGNA    86              0.0000000000
        63         5  ASN       O              12.9036861510       10.6648614668       -0.9001702156  SSNGNA    86              0.0000000000
        64         6  ALA       N              14.7848352325       10.3831627370        0.3028198032  SSNGNA    87              0.0000000000
        65         6  ALA       HN             15.3882337143        9.7431195004        0.7708443431  SSNGNA    87              0.0000000000
        66         6  ALA       CA             15.2225397901       11.7649843887        0.2402832703  SSNGNA    87              0.0000000000
        67         6  ALA       HA             14.5989706444       12.3274153385       -0.4449866181  SSNGNA    87              0.0000000000
        68         6  ALA       CB             15.1064338332       12.3983941192        1.6403838212  SSNGNA    87              0.0000000000
        69         6  ALA       HB1            15.7046164947       11.8292956827        2.3805113033  SSNGNA    87              0.0000000000
        70         6  ALA       HB2            14.0449890691       12.3899166410        1.9669895284  SSNGNA    87              0.0000000000
        71         6  ALA       HB3            15.4609371180       13.4521065852        1.6240242309  SSNGNA    87              0.0000000000
        72         6  ALA       C              16.6833279784       11.9214471519       -0.2860691895  SSNGNA    87              0.0000000000
        73         6  ALA       O              17.1961632353       13.0367963915       -0.3992999172  SSNGNA    87              0.0000000000
        74         6  ALA       NT             17.3848240057       10.8070367337       -0.6119830954  SSNGNA    87              0.0000000000
        75         6  ALA       HT1            18.3151633690       10.9463818323       -0.9354983152  SSNGNA    87              0.0000000000
        76         6  ALA       HT2            16.9699239487        9.8981068111       -0.5471454100  SSNGNA    87              0.0000000000
