PSF EXT CMAP CHEQ XPLOR

         2 !NTITLE
* SSNGNA : WH5: WAAAH+ PEPTIDE                                                  
*  DATE:     5/18/24     11:55:23      CREATED BY USER: jinyan                  

        76 !NATOM
         1 SSNGNA   82       SER      CAY      CT3     -0.270000       12.0110           0   0.00000     -0.301140E-02
         2 SSNGNA   82       SER      HY1      HA       0.900000E-01   1.00800           0   0.00000     -0.301140E-02
         3 SSNGNA   82       SER      HY2      HA       0.900000E-01   1.00800           0   0.00000     -0.301140E-02
         4 SSNGNA   82       SER      HY3      HA       0.900000E-01   1.00800           0   0.00000     -0.301140E-02
         5 SSNGNA   82       SER      CY       C        0.510000       12.0110           0   0.00000     -0.301140E-02
         6 SSNGNA   82       SER      OY       O       -0.510000       15.9990           0   0.00000     -0.301140E-02
         7 SSNGNA   82       SER      N        NH1     -0.470000       14.0070           0   0.00000     -0.301140E-02
         8 SSNGNA   82       SER      HN       H        0.310000       1.00800           0   0.00000     -0.301140E-02
         9 SSNGNA   82       SER      CA       CT1      0.700000E-01   12.0110           0   0.00000     -0.301140E-02
        10 SSNGNA   82       SER      HA       HB       0.900000E-01   1.00800           0   0.00000     -0.301140E-02
        11 SSNGNA   82       SER      CB       CT2      0.500000E-01   12.0110           0   0.00000     -0.301140E-02
        12 SSNGNA   82       SER      HB1      HA       0.900000E-01   1.00800           0   0.00000     -0.301140E-02
        13 SSNGNA   82       SER      HB2      HA       0.900000E-01   1.00800           0   0.00000     -0.301140E-02
        14 SSNGNA   82       SER      OG       OH1     -0.660000       15.9990           0   0.00000     -0.301140E-02
        15 SSNGNA   82       SER      HG1      H        0.430000       1.00800           0   0.00000     -0.301140E-02
        16 SSNGNA   82       SER      C        C        0.510000       12.0110           0   0.00000     -0.301140E-02
        17 SSNGNA   82       SER      O        O       -0.510000       15.9990           0   0.00000     -0.301140E-02
        18 SSNGNA   83       SER      N        NH1     -0.470000       14.0070           0   0.00000     -0.301140E-02
        19 SSNGNA   83       SER      HN       H        0.310000       1.00800           0   0.00000     -0.301140E-02
        20 SSNGNA   83       SER      CA       CT1      0.700000E-01   12.0110           0   0.00000     -0.301140E-02
        21 SSNGNA   83       SER      HA       HB       0.900000E-01   1.00800           0   0.00000     -0.301140E-02
        22 SSNGNA   83       SER      CB       CT2      0.500000E-01   12.0110           0   0.00000     -0.301140E-02
        23 SSNGNA   83       SER      HB1      HA       0.900000E-01   1.00800           0   0.00000     -0.301140E-02
        24 SSNGNA   83       SER      HB2      HA       0.900000E-01   1.00800           0   0.00000     -0.301140E-02
        25 SSNGNA   83       SER      OG       OH1     -0.660000       15.9990           0   0.00000     -0.301140E-02
        26 SSNGNA   83       SER      HG1      H        0.430000       1.00800           0   0.00000     -0.301140E-02
        27 SSNGNA   83       SER      C        C        0.510000       12.0110           0   0.00000     -0.301140E-02
        28 SSNGNA   83       SER      O        O       -0.510000       15.9990           0   0.00000     -0.301140E-02
        29 SSNGNA   84       ASN      N        NH1     -0.470000       14.0070           0   0.00000     -0.301140E-02
        30 SSNGNA   84       ASN      HN       H        0.310000       1.00800           0   0.00000     -0.301140E-02
        31 SSNGNA   84       ASN      CA       CT1      0.700000E-01   12.0110           0   0.00000     -0.301140E-02
        32 SSNGNA   84       ASN      HA       HB       0.900000E-01   1.00800           0   0.00000     -0.301140E-02
        33 SSNGNA   84       ASN      CB       CT2     -0.180000       12.0110           0   0.00000     -0.301140E-02
        34 SSNGNA   84       ASN      HB1      HA       0.900000E-01   1.00800           0   0.00000     -0.301140E-02
        35 SSNGNA   84       ASN      HB2      HA       0.900000E-01   1.00800           0   0.00000     -0.301140E-02
        36 SSNGNA   84       ASN      CG       CC       0.550000       12.0110           0   0.00000     -0.301140E-02
        37 SSNGNA   84       ASN      OD1      O       -0.550000       15.9990           0   0.00000     -0.301140E-02
        38 SSNGNA   84       ASN      ND2      NH2     -0.620000       14.0070           0   0.00000     -0.301140E-02
        39 SSNGNA   84       ASN      HD21     H        0.320000       1.00800           0   0.00000     -0.301140E-02
        40 SSNGNA   84       ASN      HD22     H        0.300000       1.00800           0   0.00000     -0.301140E-02
        41 SSNGNA   84       ASN      C        C        0.510000       12.0110           0   0.00000     -0.301140E-02
        42 SSNGNA   84       ASN      O        O       -0.510000       15.9990           0   0.00000     -0.301140E-02
        43 SSNGNA   85       GLY      N        NH1     -0.470000       14.0070           0   0.00000     -0.301140E-02
        44 SSNGNA   85       GLY      HN       H        0.310000       1.00800           0   0.00000     -0.301140E-02
        45 SSNGNA   85       GLY      CA       CT2     -0.200000E-01   12.0110           0   0.00000     -0.301140E-02
        46 SSNGNA   85       GLY      HA1      HB       0.900000E-01   1.00800           0   0.00000     -0.301140E-02
        47 SSNGNA   85       GLY      HA2      HB       0.900000E-01   1.00800           0   0.00000     -0.301140E-02
        48 SSNGNA   85       GLY      C        C        0.510000       12.0110           0   0.00000     -0.301140E-02
        49 SSNGNA   85       GLY      O        O       -0.510000       15.9990           0   0.00000     -0.301140E-02
        50 SSNGNA   86       ASN      N        NH1     -0.470000       14.0070           0   0.00000     -0.301140E-02
        51 SSNGNA   86       ASN      HN       H        0.310000       1.00800           0   0.00000     -0.301140E-02
        52 SSNGNA   86       ASN      CA       CT1      0.700000E-01   12.0110           0   0.00000     -0.301140E-02
        53 SSNGNA   86       ASN      HA       HB       0.900000E-01   1.00800           0   0.00000     -0.301140E-02
        54 SSNGNA   86       ASN      CB       CT2     -0.180000       12.0110           0   0.00000     -0.301140E-02
        55 SSNGNA   86       ASN      HB1      HA       0.900000E-01   1.00800           0   0.00000     -0.301140E-02
        56 SSNGNA   86       ASN      HB2      HA       0.900000E-01   1.00800           0   0.00000     -0.301140E-02
        57 SSNGNA   86       ASN      CG       CC       0.550000       12.0110           0   0.00000     -0.301140E-02
        58 SSNGNA   86       ASN      OD1      O       -0.550000       15.9990           0   0.00000     -0.301140E-02
        59 SSNGNA   86       ASN      ND2      NH2     -0.620000       14.0070           0   0.00000     -0.301140E-02
        60 SSNGNA   86       ASN      HD21     H        0.320000       1.00800           0   0.00000     -0.301140E-02
        61 SSNGNA   86       ASN      HD22     H        0.300000       1.00800           0   0.00000     -0.301140E-02
        62 SSNGNA   86       ASN      C        C        0.510000       12.0110           0   0.00000     -0.301140E-02
        63 SSNGNA   86       ASN      O        O       -0.510000       15.9990           0   0.00000     -0.301140E-02
        64 SSNGNA   87       ALA      N        NH1     -0.470000       14.0070           0   0.00000     -0.301140E-02
        65 SSNGNA   87       ALA      HN       H        0.310000       1.00800           0   0.00000     -0.301140E-02
        66 SSNGNA   87       ALA      CA       CT1      0.700000E-01   12.0110           0   0.00000     -0.301140E-02
        67 SSNGNA   87       ALA      HA       HB       0.900000E-01   1.00800           0   0.00000     -0.301140E-02
        68 SSNGNA   87       ALA      CB       CT3     -0.270000       12.0110           0   0.00000     -0.301140E-02
        69 SSNGNA   87       ALA      HB1      HA       0.900000E-01   1.00800           0   0.00000     -0.301140E-02
        70 SSNGNA   87       ALA      HB2      HA       0.900000E-01   1.00800           0   0.00000     -0.301140E-02
        71 SSNGNA   87       ALA      HB3      HA       0.900000E-01   1.00800           0   0.00000     -0.301140E-02
        72 SSNGNA   87       ALA      C        CC       0.550000       12.0110           0   0.00000     -0.301140E-02
        73 SSNGNA   87       ALA      O        O       -0.550000       15.9990           0   0.00000     -0.301140E-02
        74 SSNGNA   87       ALA      NT       NH2     -0.620000       14.0070           0   0.00000     -0.301140E-02
        75 SSNGNA   87       ALA      HT1      H        0.320000       1.00800           0   0.00000     -0.301140E-02
        76 SSNGNA   87       ALA      HT2      H        0.300000       1.00800           0   0.00000     -0.301140E-02

        75 !NBOND: bonds
         5         1         5         7         1         2         1         3
         1         4         6         5        11         9        14        11
         7         8         7         9        16         9        16        18
         9        10        11        12        11        13        14        15
        17        16        22        20        25        22        18        19
        18        20        27        20        27        29        20        21
        22        23        22        24        25        26        28        27
        33        31        36        33        38        36        29        30
        29        31        41        31        41        43        31        32
        33        34        33        35        38        39        38        40
        41        42        36        37        43        44        43        45
        48        45        48        50        45        46        45        47
        49        48        54        52        57        54        59        57
        50        51        50        52        62        52        62        64
        52        53        54        55        54        56        59        60
        59        61        62        63        57        58        68        66
        64        65        64        66        72        66        66        67
        68        69        68        70        68        71        73        72
        72        74        74        75        74        76

       128 !NTHETA: angles
         2         1         3         2         1         4         2         1         5
         3         1         4         3         1         5         4         1         5
         1         5         6         1         5         7         6         5         7
         5         7         8         5         7         9         8         7         9
         7         9        10         7         9        11         7         9        16
        10         9        11        10         9        16        11         9        16
         9        11        12         9        11        13         9        11        14
        12        11        13        12        11        14        13        11        14
        11        14        15         9        16        17         9        16        18
        17        16        18        16        18        19        16        18        20
        19        18        20        18        20        21        18        20        22
        18        20        27        21        20        22        21        20        27
        22        20        27        20        22        23        20        22        24
        20        22        25        23        22        24        23        22        25
        24        22        25        22        25        26        20        27        28
        20        27        29        28        27        29        27        29        30
        27        29        31        30        29        31        29        31        32
        29        31        33        29        31        41        32        31        33
        32        31        41        33        31        41        31        33        34
        31        33        35        31        33        36        34        33        35
        34        33        36        35        33        36        33        36        37
        33        36        38        37        36        38        36        38        39
        36        38        40        39        38        40        31        41        42
        31        41        43        42        41        43        41        43        44
        41        43        45        44        43        45        43        45        46
        43        45        47        43        45        48        46        45        47
        46        45        48        47        45        48        45        48        49
        45        48        50        49        48        50        48        50        51
        48        50        52        51        50        52        50        52        53
        50        52        54        50        52        62        53        52        54
        53        52        62        54        52        62        52        54        55
        52        54        56        52        54        57        55        54        56
        55        54        57        56        54        57        54        57        58
        54        57        59        58        57        59        57        59        60
        57        59        61        60        59        61        52        62        63
        52        62        64        63        62        64        62        64        65
        62        64        66        65        64        66        64        66        67
        64        66        68        64        66        72        67        66        68
        67        66        72        68        66        72        66        68        69
        66        68        70        66        68        71        69        68        70
        69        68        71        70        68        71        66        72        73
        66        72        74        73        72        74        72        74        75
        72        74        76        75        74        76

       177 !NPHI: dihedrals
         1         5         7         8         1         5         7         9
         2         1         5         6         2         1         5         7
         3         1         5         6         3         1         5         7
         4         1         5         6         4         1         5         7
         5         7         9        10         5         7         9        11
         5         7         9        16         6         5         7         8
         6         5         7         9         7         9        11        12
         7         9        11        13         7         9        11        14
         7         9        16        17         7         9        16        18
         8         7         9        10         8         7         9        11
         8         7         9        16         9        11        14        15
         9        16        18        19         9        16        18        20
        10         9        11        12        10         9        11        13
        10         9        11        14        10         9        16        17
        10         9        16        18        11         9        16        17
        11         9        16        18        12        11         9        16
        12        11        14        15        13        11         9        16
        13        11        14        15        14        11         9        16
        16        18        20        21        16        18        20        22
        16        18        20        27        17        16        18        19
        17        16        18        20        18        20        22        23
        18        20        22        24        18        20        22        25
        18        20        27        28        18        20        27        29
        19        18        20        21        19        18        20        22
        19        18        20        27        20        22        25        26
        20        27        29        30        20        27        29        31
        21        20        22        23        21        20        22        24
        21        20        22        25        21        20        27        28
        21        20        27        29        22        20        27        28
        22        20        27        29        23        22        20        27
        23        22        25        26        24        22        20        27
        24        22        25        26        25        22        20        27
        27        29        31        32        27        29        31        33
        27        29        31        41        28        27        29        30
        28        27        29        31        29        31        33        34
        29        31        33        35        29        31        33        36
        29        31        41        42        29        31        41        43
        30        29        31        32        30        29        31        33
        30        29        31        41        31        33        36        37
        31        33        36        38        31        41        43        44
        31        41        43        45        32        31        33        34
        32        31        33        35        32        31        33        36
        32        31        41        42        32        31        41        43
        33        31        41        42        33        31        41        43
        33        36        38        39        33        36        38        40
        34        33        31        41        34        33        36        37
        34        33        36        38        35        33        31        41
        35        33        36        37        35        33        36        38
        36        33        31        41        37        36        38        39
        37        36        38        40        41        43        45        46
        41        43        45        47        41        43        45        48
        42        41        43        44        42        41        43        45
        43        45        48        49        43        45        48        50
        44        43        45        46        44        43        45        47
        44        43        45        48        45        48        50        51
        45        48        50        52        46        45        48        49
        46        45        48        50        47        45        48        49
        47        45        48        50        48        50        52        53
        48        50        52        54        48        50        52        62
        49        48        50        51        49        48        50        52
        50        52        54        55        50        52        54        56
        50        52        54        57        50        52        62        63
        50        52        62        64        51        50        52        53
        51        50        52        54        51        50        52        62
        52        54        57        58        52        54        57        59
        52        62        64        65        52        62        64        66
        53        52        54        55        53        52        54        56
        53        52        54        57        53        52        62        63
        53        52        62        64        54        52        62        63
        54        52        62        64        54        57        59        60
        54        57        59        61        55        54        52        62
        55        54        57        58        55        54        57        59
        56        54        52        62        56        54        57        58
        56        54        57        59        57        54        52        62
        58        57        59        60        58        57        59        61
        62        64        66        67        62        64        66        68
        62        64        66        72        63        62        64        65
        63        62        64        66        64        66        68        69
        64        66        68        70        64        66        68        71
        64        66        72        73        64        66        72        74
        65        64        66        67        65        64        66        68
        65        64        66        72        66        72        74        75
        66        72        74        76        67        66        68        69
        67        66        68        70        67        66        68        71
        67        66        72        73        67        66        72        74
        68        66        72        73        68        66        72        74
        69        68        66        72        70        68        66        72
        71        68        66        72        73        72        74        75
        73        72        74        76

        24 !NIMPHI: impropers
         5         1         7         6         7         5         9         8
        16         9        18        17        18        16        20        19
        27        20        29        28        29        27        31        30
        41        31        43        42        36        38        33        37
        36        33        38        37        38        36        39        40
        38        36        40        39        43        41        45        44
        48        45        50        49        50        48        52        51
        62        52        64        63        57        59        54        58
        57        54        59        58        59        57        60        61
        59        57        61        60        64        62        66        65
        72        74        66        73        72        66        74        73
        74        72        75        76        74        72        76        75

        14 !NDON: donors
         7         8        14        15        18        19        25        26
        29        30        38        39        38        40        43        44
        50        51        59        60        59        61        64        65
        74        75        74        76

        11 !NACC: acceptors
         6         5        14         0        17        16        25         0
        28        27        37        36        42        41        49        48
        58        57        63        62        73        72

         0 !NNB

         0         0         0         0         0         0         0         0
         0         0         0         0         0         0         0         0
         0         0         0         0         0         0         0         0
         0         0         0         0         0         0         0         0
         0         0         0         0         0         0         0         0
         0         0         0         0         0         0         0         0
         0         0         0         0         0         0         0         0
         0         0         0         0         0         0         0         0
         0         0         0         0         0         0         0         0
         0         0         0         0

        24         0 !NGRP NST2
         0         1         0         4         1         0         6         1         0
        10         1         0        15         1         0        17         1         0
        21         1         0        26         1         0        28         1         0
        32         1         0        35         1         0        37         1         0
        40         1         0        42         1         0        47         1         0
        49         1         0        53         1         0        56         1         0
        58         1         0        61         1         0        63         1         0
        67         1         0        71         1         0        73         1         0

         1 !MOLNT
         1         1         1         1         1         1         1         1
         1         1         1         1         1         1         1         1
         1         1         1         1         1         1         1         1
         1         1         1         1         1         1         1         1
         1         1         1         1         1         1         1         1
         1         1         1         1         1         1         1         1
         1         1         1         1         1         1         1         1
         1         1         1         1         1         1         1         1
         1         1         1         1         1         1         1         1
         1         1         1         1

         0         0 !NUMLP NUMLPH

         5 !NCRTERM: cross-terms
         5         7         9        16         7         9        16        18
        16        18        20        27        18        20        27        29
        27        29        31        41        29        31        41        43
        41        43        45        48        43        45        48        50
        48        50        52        62        50        52        62        64
