Protein in water
 6844
   79ACE    CH3    1   0.320   2.126   0.843 -0.5654 -0.7617 -0.1252
   79ACE   HH31    2   0.227   2.159   0.791  1.0336  1.3789 -1.7756
   79ACE   HH32    3   0.336   2.197   0.927  0.3673 -0.4263 -0.5746
   79ACE   HH33    4   0.416   2.127   0.787 -0.1063 -2.3183  0.5734
   79ACE      C    5   0.302   1.993   0.897  1.2324  0.6165  0.8979
   79ACE      O    6   0.200   1.960   0.952  0.1395 -0.3031 -0.5617
   79HSD      N    7   0.401   1.901   0.869  0.6138 -0.1111 -0.1801
   79HSD     HN    8   0.480   1.925   0.813  0.8802  0.1305  0.2888
   79HSD     CA    9   0.375   1.757   0.894  0.2999  0.4850 -0.6735
   79HSD     HA   10   0.289   1.743   0.959 -0.4003  0.3768 -1.6029
   79HSD     CB   11   0.359   1.678   0.769  0.5082  1.1493  0.6709
   79HSD    HB1   12   0.357   1.568   0.784 -1.5602  1.0384 -0.1323
   79HSD    HB2   13   0.263   1.711   0.722  1.4771  1.6282 -1.0738
   79HSD    ND1   14   0.585   1.631   0.675 -0.9854 -0.1362  0.4729
   79HSD    HD1   15   0.614   1.556   0.736  3.3054 -0.8914 -2.0607
   79HSD     CG   16   0.468   1.697   0.670 -0.3340  0.1487 -0.5280
   79HSD    CE1   17   0.663   1.680   0.575  0.0956 -0.1171  0.2055
   79HSD    HE1   18   0.765   1.645   0.557  0.0801 -0.5585  0.9190
   79HSD    NE2   19   0.596   1.759   0.499 -0.6051  0.2223 -0.0388
   79HSD    CD2   20   0.471   1.770   0.560 -0.1548  0.1732 -0.1234
   79HSD    HD2   21   0.396   1.824   0.504  0.4042 -0.0030 -1.0770
   79HSD      C   22   0.494   1.709   0.968 -0.0182 -0.0354 -0.0797
   79HSD      O   23   0.614   1.749   0.939  0.6604  0.1201 -0.9195
   80ALA      N   24   0.464   1.627   1.072 -0.3098  0.0728  0.7714
   80ALA     HN   25   0.373   1.597   1.098  0.2712 -0.5722  2.1759
   80ALA     CA   26   0.575   1.566   1.138  1.4074  0.0370  0.3842
   80ALA     HA   27   0.665   1.626   1.135  1.6707 -0.0537  3.4307
   80ALA     CB   28   0.540   1.542   1.282 -0.4933  0.1345  0.5320
   80ALA    HB1   29   0.464   1.461   1.296 -3.2883  2.5368  0.2517
   80ALA    HB2   30   0.635   1.527   1.337  0.1313 -3.3576 -1.1945
   80ALA    HB3   31   0.487   1.634   1.315 -0.3261 -0.2865  2.0102
   80ALA      C   32   0.608   1.441   1.067 -0.1761  0.6755 -1.1201
   80ALA      O   33   0.708   1.382   1.090  0.7030 -0.5442 -0.3400
   81VAL      N   34   0.523   1.396   0.978 -0.4529  0.0228 -0.1528
   81VAL     HN   35   0.439   1.449   0.967 -1.1266 -0.6552  1.4322
   81VAL     CA   36   0.521   1.274   0.905  0.2919 -0.2794  0.1788
   81VAL     HA   37   0.541   1.201   0.982  2.4260 -0.7413 -0.7554
   81VAL     CB   38   0.389   1.218   0.843  0.9991  0.3054  0.4701
   81VAL     HB   39   0.332   1.302   0.797 -0.3500 -0.9242 -0.1710
   81VAL    CG1   40   0.406   1.111   0.728 -0.5336  0.3062 -0.6216
   81VAL   HG11   41   0.482   1.038   0.764 -0.3510  0.5317 -0.5531
   81VAL   HG12   42   0.309   1.058   0.714 -1.4181 -0.0517  4.7661
   81VAL   HG13   43   0.440   1.162   0.635 -0.0191 -0.2501 -0.7429
   81VAL    CG2   44   0.299   1.163   0.946  0.4492  0.4410 -0.2549
   81VAL   HG21   45   0.193   1.159   0.913 -1.3941  0.9655  4.7809
   81VAL   HG22   46   0.327   1.060   0.978 -2.7889 -0.0082  1.5709
   81VAL   HG23   47   0.307   1.213   1.045 -0.7846 -1.5271  0.9163
   81VAL      C   48   0.648   1.260   0.819  0.4604 -0.1246 -0.1318
   81VAL      O   49   0.698   1.353   0.759  0.3547 -0.2572 -0.5942
   82SER      N   50   0.716   1.143   0.820  0.1996 -0.0229 -0.2364
   82SER     HN   51   0.691   1.063   0.873  0.5042 -1.6626 -2.4555
   82SER     CA   52   0.823   1.114   0.732  0.1439 -0.5641  0.8201
   82SER     HA   53   0.895   1.193   0.744  0.0363 -0.4811  0.9281
   82SER     CB   54   0.903   0.986   0.761  0.0691  0.3836 -0.1841
   82SER    HB1   55   0.941   0.988   0.866  0.3699 -0.1038 -0.2818
   82SER    HB2   56   0.850   0.890   0.748  0.3136  0.0793  0.9401
   82SER     OG   57   1.015   0.973   0.674  0.2644 -0.1863  0.6375
   82SER    HG1   58   1.082   1.035   0.704 -0.5757  0.9248  0.2877
   82SER      C   59   0.788   1.109   0.579 -0.0221  1.0417  0.0294
   82SER      O   60   0.706   1.035   0.528 -0.3222  0.1320 -0.5102
   83SER      N   61   0.853   1.192   0.495 -0.0952  0.2530  0.3008
   83SER     HN   62   0.911   1.262   0.536 -2.6626  2.7452  0.0080
   83SER     CA   63   0.843   1.193   0.351 -0.1267  0.1385 -0.4431
   83SER     HA   64   0.744   1.179   0.310 -0.8726 -0.3581  1.4067
   83SER     CB   65   0.900   1.327   0.292  0.0317 -0.1131 -0.2547
   83SER    HB1   66   0.906   1.345   0.182 -0.0660  1.7845  0.0068
   83SER    HB2   67   0.827   1.401   0.330  1.1429  2.1513 -2.2322
   83SER     OG   68   1.024   1.367   0.357 -0.2849  0.0390  0.1844
   83SER    HG1   69   1.094   1.321   0.310 -0.3155 -0.2551  0.4230
   83SER      C   70   0.923   1.086   0.280  0.0378 -0.8024  0.7791
   83SER      O   71   0.892   1.056   0.163 -0.1052 -0.1881 -0.3867
   84ASN      N   72   1.020   1.021   0.338 -0.6188  0.2550  0.2461
   84ASN     HN   73   1.053   1.056   0.425 -1.0502  0.8308  0.1867
   84ASN     CA   74   1.094   0.917   0.266  0.0128  0.8636  0.0081
   84ASN     HA   75   1.073   0.927   0.160  1.2703  1.9064 -0.1714
   84ASN     CB   76   1.242   0.944   0.289 -0.1715  0.0789 -0.2321
   84ASN    HB1   77   1.260   1.050   0.264 -1.0470  0.2260 -0.2969
   84ASN    HB2   78   1.274   0.916   0.392 -2.1182 -0.3258  0.3120
   84ASN     CG   79   1.323   0.861   0.188  0.2015 -0.6073  0.3747
   84ASN    OD1   80   1.264   0.802   0.095  0.0351  0.2770  0.0045
   84ASN    ND2   81   1.452   0.847   0.213 -0.4990 -0.1295 -0.0020
   84ASN   HD21   82   1.507   0.905   0.273 -0.0518  1.7141 -2.0977
   84ASN   HD22   83   1.505   0.795   0.146  0.0904 -0.1042  0.4374
   84ASN      C   84   1.054   0.771   0.311  0.3296 -0.5135  0.1318
   84ASN     NT   85   1.034   0.751   0.445 -0.0128 -0.4860 -0.6992
   84ASN    HT1   86   1.054   0.820   0.514  0.9538 -0.2281 -1.2073
   84ASN    HT2   87   1.010   0.657   0.470 -2.1455 -0.1982 -1.4911
   84ASN      O   88   1.038   0.675   0.233  0.4763  0.6241  0.0766
   85SOL     OW   89   1.772   0.041   0.343 -0.0009  0.4842 -0.3932
   85SOL    HW1   90   1.686   0.003   0.329 -0.5845  1.3815  0.7181
   85SOL    HW2   91   1.804   0.063   0.256 -0.6793 -0.2934 -0.8488
   86SOL     OW   92   1.679   1.320   3.465 -0.1086  0.7723 -0.5912
   86SOL    HW1   93   1.708   1.279   3.383  2.7484 -0.0962  0.7412
   86SOL    HW2   94   1.752   1.375   3.492  0.0534 -0.7552  2.5268
   87SOL     OW   95   0.407   1.743   2.137 -0.0988 -0.1724  0.2202
   87SOL    HW1   96   0.380   1.817   2.083 -0.2881 -0.6098 -0.3016
   87SOL    HW2   97   0.400   1.774   2.227  0.2880  0.5951 -0.0067
   88SOL     OW   98   0.603   2.999   0.156  0.4106  0.8786 -0.0137
   88SOL    HW1   99   0.622   2.906   0.144  0.0721  0.8669 -0.4855
   88SOL    HW2  100   0.622   3.016   0.248 -0.1659  0.1912  0.2353
   89SOL     OW  101   0.225   1.687   2.604  0.9813 -0.0179  0.1422
   89SOL    HW1  102   0.131   1.669   2.617 -0.0643  2.9806 -2.2319
   89SOL    HW2  103   0.263   1.680   2.692 -1.6822 -0.0884  1.3837
   90SOL     OW  104   1.287   0.867   0.981  0.6585 -0.0891 -0.1400
   90SOL    HW1  105   1.251   0.901   1.063 -0.3703  0.4211 -0.7750
   90SOL    HW2  106   1.317   0.779   1.003  3.0389  1.0133  1.4607
   91SOL     OW  107   0.029   1.788   0.853  0.1290 -0.2825  0.1064
   91SOL    HW1  108   0.102   1.842   0.883  1.3674 -1.6902 -0.2757
   91SOL    HW2  109  -0.010   1.839   0.781 -2.0957  2.5551  3.0125
   92SOL     OW  110   0.017   0.895   3.054  0.5727  0.3344 -0.2326
   92SOL    HW1  111  -0.017   0.932   2.972  0.8449  0.9712 -0.0665
   92SOL    HW2  112   0.095   0.947   3.073  2.5035 -2.0351 -1.3680
   93SOL     OW  113   2.556   2.234   0.836  0.2688 -0.4067 -0.3102
   93SOL    HW1  114   2.580   2.324   0.859 -2.3706  0.6918 -1.4358
   93SOL    HW2  115   2.502   2.204   0.909  0.1024 -0.5972 -0.5090
   94SOL     OW  116   3.272   0.347   2.139 -0.0333  0.1858  0.4926
   94SOL    HW1  117   3.184   0.383   2.155 -0.3146 -0.5003  0.5480
   94SOL    HW2  118   3.279   0.340   2.044  0.2355  0.8863  0.4553
   95SOL     OW  119   2.374   3.248   0.054 -0.1680 -0.1942 -0.0803
   95SOL    HW1  120   2.390   3.309  -0.018 -0.3073 -0.2888 -0.1515
   95SOL    HW2  121   2.456   3.199   0.062  0.1473  0.3983  0.3836
   96SOL     OW  122   1.075   2.420   0.620  0.1822 -0.3932 -0.1237
   96SOL    HW1  123   1.108   2.370   0.545  0.4912  1.2255 -1.1364
   96SOL    HW2  124   0.980   2.425   0.605  0.3127  0.4281 -0.7651
   97SOL     OW  125   3.489   2.452   0.472 -0.2456 -0.8828 -0.4850
   97SOL    HW1  126   3.404   2.490   0.448 -0.1447 -0.1536  0.2921
   97SOL    HW2  127   3.469   2.361   0.496 -1.1078 -0.2251  1.4544
   98SOL     OW  128   3.078   2.596   0.792 -0.5005  0.5335 -0.3291
   98SOL    HW1  129   3.118   2.538   0.727 -0.7049  1.6890 -1.5180
   98SOL    HW2  130   3.025   2.538   0.847 -1.6309 -0.2835 -2.1989
   99SOL     OW  131   2.859   2.553   1.104  0.1495 -0.5703 -0.1782
   99SOL    HW1  132   2.940   2.502   1.111  0.0100 -0.6661  1.0366
   99SOL    HW2  133   2.835   2.571   1.195  0.5763  2.3131 -0.5411
  100SOL     OW  134   3.226   1.107   3.369  0.0977  0.3443  0.3098
  100SOL    HW1  135   3.238   1.053   3.291  0.5772 -1.0260  1.2931
  100SOL    HW2  136   3.314   1.114   3.407 -0.0654  1.3079  0.5380
  101SOL     OW  137   3.740   2.826   0.167 -0.0849  0.1021 -0.1727
  101SOL    HW1  138   3.725   2.878   0.088  0.8887  0.4831 -0.1186
  101SOL    HW2  139   3.665   2.766   0.171 -0.0549 -0.0447 -1.4833
  102SOL     OW  140   0.356   2.988   3.333  0.3785  0.0078  0.0459
  102SOL    HW1  141   0.389   3.077   3.343 -1.6165  0.7937  0.1627
  102SOL    HW2  142   0.431   2.932   3.351  1.8260  1.6611 -0.6312
  103SOL     OW  143   3.403   1.656   0.746  0.0862  0.1402  0.6454
  103SOL    HW1  144   3.406   1.584   0.809 -2.7492  1.1129  2.0663
  103SOL    HW2  145   3.423   1.734   0.798 -0.4258  0.7533 -0.0552
  104SOL     OW  146   3.097   3.217   2.032  0.2302  0.6665  0.1259
  104SOL    HW1  147   3.147   3.232   2.112 -0.7021  1.1014  0.6506
  104SOL    HW2  148   3.094   3.121   2.024 -0.7452  0.5634  1.3449
  105SOL     OW  149   4.060   1.838   1.723  0.2827 -0.0365 -0.2280
  105SOL    HW1  150   4.064   1.742   1.722  1.0349 -0.0236 -2.2293
  105SOL    HW2  151   4.095   1.865   1.638  1.6368  2.0894  0.9235
  106SOL     OW  152   2.351   1.539   3.639  0.3020  0.8297 -0.4210
  106SOL    HW1  153   2.393   1.480   3.576 -0.1256  0.5682 -0.4624
  106SOL    HW2  154   2.265   1.501   3.654  0.0285  1.4326 -0.4302
  107SOL     OW  155   1.008   3.628   0.882 -0.7525 -0.1185  0.4271
  107SOL    HW1  156   0.981   3.576   0.806 -2.3770 -1.2328  1.7138
  107SOL    HW2  157   1.092   3.591   0.909 -1.6194 -1.7359  0.9825
  108SOL     OW  158   1.411   0.840   2.772 -0.2899  0.2586 -0.2235
  108SOL    HW1  159   1.346   0.870   2.836 -0.2848 -1.4421  0.6358
  108SOL    HW2  160   1.359   0.814   2.696 -0.6127 -0.7551  0.3263
  109SOL     OW  161   2.408   2.538   2.003 -0.6081  0.0306 -0.0692
  109SOL    HW1  162   2.443   2.477   2.068  0.6578 -0.0094 -0.7502
  109SOL    HW2  163   2.363   2.605   2.054  1.3681  0.6562  0.9460
  110SOL     OW  164   3.671   0.518   3.383  0.2266  0.0702  0.1383
  110SOL    HW1  165   3.658   0.534   3.289  0.9473  1.1860  0.2180
  110SOL    HW2  166   3.592   0.554   3.424 -0.5550 -1.3112 -0.0991
  111SOL     OW  167   0.706   3.365   0.893  0.2200 -0.1155 -0.0244
  111SOL    HW1  168   0.797   3.334   0.890  0.2736 -0.0405  0.7480
  111SOL    HW2  169   0.710   3.447   0.942 -0.2336  0.0169 -0.2057
  112SOL     OW  170   2.090   0.036   2.969  0.4521 -0.8288  0.1236
  112SOL    HW1  171   2.091   0.007   2.877 -1.9259  0.4768 -0.3765
  112SOL    HW2  172   1.999   0.026   2.996  0.1848  2.8497  0.9753
  113SOL     OW  173   3.084   2.280   3.869  0.1612  0.6810 -0.5087
  113SOL    HW1  174   3.164   2.324   3.839  0.6490 -0.2951 -0.6637
  113SOL    HW2  175   3.044   2.247   3.790 -0.1768  0.7856 -0.3834
  114SOL     OW  176   1.787   2.477   0.502  0.5640  0.5173  0.2155
  114SOL    HW1  177   1.714   2.451   0.445 -0.5126  1.2450  1.2085
  114SOL    HW2  178   1.866   2.458   0.450 -0.3652  2.1258 -1.9603
  115SOL     OW  179   0.579   0.889   2.549  0.0012  0.4419  0.4329
  115SOL    HW1  180   0.520   0.891   2.625  0.0167 -0.0125  0.4642
  115SOL    HW2  181   0.633   0.967   2.558  0.2587  0.1998  1.1018
  116SOL     OW  182   1.528   1.093   2.646 -0.3821  0.4409 -0.3167
  116SOL    HW1  183   1.532   1.005   2.683 -0.8107  0.7479  0.4778
  116SOL    HW2  184   1.437   1.120   2.658 -0.0676  1.2996  0.1821
  117SOL     OW  185   2.514   1.344   1.517  0.3383 -0.7929  0.9260
  117SOL    HW1  186   2.476   1.346   1.605 -0.2152  1.3623  0.7094
  117SOL    HW2  187   2.547   1.433   1.504 -1.3958 -0.4353 -1.7935
  118SOL     OW  188   1.120   2.634   3.201 -0.2142  0.1126  0.4771
  118SOL    HW1  189   1.064   2.665   3.273 -1.1864 -0.3967 -0.0359
  118SOL    HW2  190   1.170   2.562   3.239 -0.9873 -0.3945  0.5628
  119SOL     OW  191   1.962   1.088   0.760 -0.4864  0.5374  0.3899
  119SOL    HW1  192   1.891   1.024   0.766  0.8548 -1.0150  0.3610
  119SOL    HW2  193   1.948   1.132   0.676 -2.2163  1.3124  1.0268
  120SOL     OW  194   3.280   0.625   3.447  0.4590 -0.4457  0.2989
  120SOL    HW1  195   3.363   0.666   3.472 -0.1464  0.1772  1.3449
  120SOL    HW2  196   3.227   0.697   3.413 -0.1984 -0.5454  1.0757
  121SOL     OW  197   0.032   2.078   2.589  0.9337  0.3873  0.0123
  121SOL    HW1  198   0.057   2.093   2.680  0.9333 -0.2172  0.1164
  121SOL    HW2  199   0.115   2.063   2.544  0.8432 -1.1008  0.2609
  122SOL     OW  200   2.813   1.022   2.519 -0.2563  0.0260 -0.6630
  122SOL    HW1  201   2.826   1.086   2.449 -1.2721  0.2304 -0.6819
  122SOL    HW2  202   2.744   0.964   2.486  0.3470 -0.8312 -0.4664
  123SOL     OW  203   3.419   2.181   0.493  0.0802  0.4761  0.8292
  123SOL    HW1  204   3.443   2.107   0.549  0.1225 -0.0053  0.1971
  123SOL    HW2  205   3.324   2.172   0.483  0.0383  0.7054  1.0236
  124SOL     OW  206   2.617   2.586   0.521  0.2677  0.2205  0.1953
  124SOL    HW1  207   2.622   2.636   0.603 -0.0112 -0.7645  0.8237
  124SOL    HW2  208   2.585   2.649   0.457 -0.5279  0.7328  1.0712
  125SOL     OW  209   0.078   0.070   0.036  0.5479  0.0149  0.1340
  125SOL    HW1  210   0.067   0.018  -0.044 -0.2362 -0.4804  0.5839
  125SOL    HW2  211  -0.001   0.052   0.087  0.1366  1.8137  0.1884
  126SOL     OW  212   3.209   3.696   2.999  0.3262 -0.4052  0.6272
  126SOL    HW1  213   3.172   3.756   2.935  1.7421 -1.4664 -1.2958
  126SOL    HW2  214   3.289   3.739   3.029 -0.0024 -0.2006  1.2345
  127SOL     OW  215   1.327   3.391   1.013  0.2842 -0.3675 -0.6611
  127SOL    HW1  216   1.296   3.305   0.984 -0.1688  0.2533 -2.0856
  127SOL    HW2  217   1.397   3.413   0.952 -0.5601  0.8912 -1.2100
  128SOL     OW  218   1.129   2.161   2.643  0.3037 -0.1563  0.5482
  128SOL    HW1  219   1.184   2.126   2.713  0.9045  1.3116  0.8518
  128SOL    HW2  220   1.182   2.229   2.602 -1.1097  1.0207  0.5717
  129SOL     OW  221   1.226   2.501   1.380  0.4172 -0.0407  0.0764
  129SOL    HW1  222   1.138   2.465   1.390  0.3389  0.0243 -0.3483
  129SOL    HW2  223   1.216   2.572   1.317  0.2744  1.7996  2.0555
  130SOL     OW  224   1.138   1.151   2.032  0.5133 -0.6751 -0.1713
  130SOL    HW1  225   1.059   1.097   2.024  0.5689 -1.1154  1.8958
  130SOL    HW2  226   1.167   1.138   2.122  1.2318  1.8545  0.0261
  131SOL     OW  227   1.012   0.981   2.500  0.2152 -0.1730 -0.2075
  131SOL    HW1  228   0.967   1.029   2.430  0.4609 -0.6488 -0.6931
  131SOL    HW2  229   1.070   0.921   2.455  0.1401 -0.7157  0.4069
  132SOL     OW  230   0.174   0.602   3.008  0.7536  0.2613  0.4408
  132SOL    HW1  231   0.180   0.646   2.924  0.0631  0.4118  0.4611
  132SOL    HW2  232   0.235   0.650   3.065  2.7010 -1.0268 -0.4409
  133SOL     OW  233   2.853   1.077   0.993  0.1002  0.1490 -0.1487
  133SOL    HW1  234   2.931   1.132   0.986 -0.0881  0.4904  0.3462
  133SOL    HW2  235   2.884   0.989   0.975  1.1117 -0.1090  2.4007
  134SOL     OW  236   2.309   0.841   1.095  0.1735 -0.0177 -0.2151
  134SOL    HW1  237   2.355   0.773   1.146  3.1081  0.0941 -2.4064
  134SOL    HW2  238   2.245   0.792   1.044  0.1765 -0.7180  0.4266
  135SOL     OW  239   1.315   3.945   3.654 -0.2925  0.1176  0.3122
  135SOL    HW1  240   1.253   3.985   3.593 -0.6262 -0.5221  0.2190
  135SOL    HW2  241   1.362   3.880   3.601  1.0099  1.1178  0.1923
  136SOL     OW  242   1.903   3.336   1.180 -0.2562 -0.4978  0.3058
  136SOL    HW1  243   1.896   3.332   1.084 -1.8106  0.9488  0.3071
  136SOL    HW2  244   1.908   3.430   1.199 -1.5158 -0.6723  1.7133
  137SOL     OW  245   1.537   2.650   3.566 -0.0542  0.0767  0.6763
  137SOL    HW1  246   1.566   2.723   3.511  0.8699  0.6111  1.8355
  137SOL    HW2  247   1.562   2.675   3.655 -1.2409 -0.9092  1.3145
  138SOL     OW  248   1.209   2.915   1.339  0.3656  0.2656 -0.1426
  138SOL    HW1  249   1.115   2.910   1.354  0.4272  0.8762  0.5057
  138SOL    HW2  250   1.248   2.904   1.426  0.8427  1.2607 -0.2211
  139SOL     OW  251   1.009   2.042   2.080  0.2335 -0.1877  0.4190
  139SOL    HW1  252   0.997   1.950   2.057 -0.3625  0.1729 -0.8287
  139SOL    HW2  253   1.047   2.040   2.168 -0.1602 -1.6101  0.5903
  140SOL     OW  254   4.044   3.639   0.877  0.1357 -0.3543  0.1193
  140SOL    HW1  255   3.959   3.617   0.840 -0.0738  1.1277 -0.3655
  140SOL    HW2  256   4.063   3.727   0.843  0.6992  0.3962  2.2029
  141SOL     OW  257   1.064   1.834   3.992 -0.5835  0.0646 -0.3198
  141SOL    HW1  258   1.029   1.920   3.971 -1.6385 -0.4468 -0.7322
  141SOL    HW2  259   1.026   1.775   3.926 -0.8266 -0.9067  0.6509
  142SOL     OW  260   0.823   2.301   2.977 -0.3691 -0.3623 -0.3898
  142SOL    HW1  261   0.913   2.269   2.970 -0.4532 -0.4485 -1.0528
  142SOL    HW2  262   0.802   2.291   3.070  0.1058 -0.8741 -0.3333
  143SOL     OW  263   2.454   1.348   3.453  1.0947 -0.1461 -0.0206
  143SOL    HW1  264   2.393   1.311   3.389  1.2822  1.2372 -1.0417
  143SOL    HW2  265   2.449   1.288   3.528 -0.8741 -0.5258 -0.3988
  144SOL     OW  266   1.923   1.903   2.026  0.3817  0.0508  0.6904
  144SOL    HW1  267   1.846   1.909   2.084  0.4374  0.5824  0.7153
  144SOL    HW2  268   1.976   1.979   2.050  1.9133 -1.3821  2.0958
  145SOL     OW  269   2.031   1.954   3.285  0.4551 -0.1869 -0.2632
  145SOL    HW1  270   2.069   1.915   3.364 -0.7956  0.8058  0.8822
  145SOL    HW2  271   1.962   1.892   3.259  0.0889  0.0596  0.1174
  146SOL     OW  272   2.660   3.168   1.567  0.0332  0.0145 -0.0385
  146SOL    HW1  273   2.594   3.168   1.497 -0.1846  2.1512  0.1052
  146SOL    HW2  274   2.636   3.242   1.623  2.2221  0.4980  0.3424
  147SOL     OW  275   2.902   1.066   3.346 -0.0905  0.0394  0.0862
  147SOL    HW1  276   2.882   1.087   3.437  0.3800 -1.4713  0.5590
  147SOL    HW2  277   2.908   1.151   3.303 -3.5720  0.7531  0.7099
  148SOL     OW  278   1.681   0.570   1.242 -0.2194 -0.4033  0.4530
  148SOL    HW1  279   1.691   0.590   1.149  0.6554 -1.5867  0.2635
  148SOL    HW2  280   1.669   0.655   1.284  0.5371  0.2487 -0.6090
  149SOL     OW  281   2.128   0.409   3.380  0.1575 -0.4749  0.1763
  149SOL    HW1  282   2.183   0.433   3.454 -0.2055  0.6595  0.0928
  149SOL    HW2  283   2.095   0.492   3.347  0.1003 -0.9823 -1.0953
  150SOL     OW  284   1.736   3.655   0.988 -0.0704 -0.1657  0.1787
  150SOL    HW1  285   1.688   3.620   1.063 -1.5408  0.0799 -0.6126
  150SOL    HW2  286   1.686   3.731   0.960  0.9220  0.2514 -0.5463
  151SOL     OW  287   3.253   2.200   1.095 -0.3343  0.4528  0.0232
  151SOL    HW1  288   3.257   2.107   1.117  0.0839  0.7801  1.4693
  151SOL    HW2  289   3.162   2.215   1.070 -0.6630 -0.1363  0.8252
  152SOL     OW  290   3.150   0.712   1.422 -0.4482  0.2723 -0.4873
  152SOL    HW1  291   3.221   0.685   1.365 -1.1353 -0.5524 -0.9797
  152SOL    HW2  292   3.191   0.768   1.488  0.7064 -0.4714 -0.5526
  153SOL     OW  293   1.713   3.858   0.047 -0.4146 -0.1908 -0.5872
  153SOL    HW1  294   1.724   3.850  -0.048 -2.3745  0.6524 -0.9058
  153SOL    HW2  295   1.802   3.862   0.082  0.4968  3.2029 -2.7613
  154SOL     OW  296   1.447   1.398   0.635 -0.6953  0.5250 -0.1153
  154SOL    HW1  297   1.414   1.324   0.584 -1.4612  0.3688  0.5927
  154SOL    HW2  298   1.420   1.380   0.725 -0.0063  1.1657  0.2310
  155SOL     OW  299   0.466   4.012   0.185  0.0781 -0.5390  0.0062
  155SOL    HW1  300   0.498   3.922   0.186  0.7965 -0.2910  0.2876
  155SOL    HW2  301   0.475   4.040   0.094 -0.5841 -0.9006 -0.1719
  156SOL     OW  302   1.552   0.934   3.411  0.3680  0.0500  0.1466
  156SOL    HW1  303   1.568   0.869   3.342 -0.3554 -0.4237  0.4085
  156SOL    HW2  304   1.568   1.019   3.369  1.6703 -0.3014 -0.1017
  157SOL     OW  305   0.317   3.437   0.254 -0.2432 -0.6568 -0.2966
  157SOL    HW1  306   0.368   3.445   0.334 -0.7070  0.8088 -0.1193
  157SOL    HW2  307   0.264   3.358   0.266 -1.6193  0.4966  1.6174
  158SOL     OW  308   3.353   3.084   2.572  0.0775 -0.0502  0.5429
  158SOL    HW1  309   3.383   3.065   2.661 -1.9996 -0.4538  1.2062
  158SOL    HW2  310   3.259   3.065   2.573  0.0707 -0.5311 -1.8718
  159SOL     OW  311   1.804   1.054   1.730 -0.2653 -0.2120  0.0868
  159SOL    HW1  312   1.843   1.136   1.701  1.0526 -0.5717  0.7507
  159SOL    HW2  313   1.725   1.045   1.678  0.8829  0.2190 -1.8083
  160SOL     OW  314   1.357   3.306   2.160 -0.7714  0.5068 -1.1332
  160SOL    HW1  315   1.379   3.396   2.186 -0.3839 -0.3825  1.9693
  160SOL    HW2  316   1.274   3.288   2.203 -1.9924  0.0163 -3.5159
  161SOL     OW  317   3.106   1.890   2.878  0.2993  0.0028 -0.5695
  161SOL    HW1  318   3.123   1.936   2.960  0.0611 -0.6250 -0.1621
  161SOL    HW2  319   3.011   1.877   2.876  0.1263  1.2667 -1.6326
  162SOL     OW  320   3.516   2.657   3.771  0.1636 -0.1735 -0.0058
  162SOL    HW1  321   3.585   2.650   3.837 -0.4094  0.5362  0.6966
  162SOL    HW2  322   3.557   2.629   3.690  1.7452  1.6290  0.0796
  163SOL     OW  323   1.657   1.998   3.745 -0.6387  0.1709 -0.0035
  163SOL    HW1  324   1.661   2.047   3.663  2.0486 -0.1757 -0.1417
  163SOL    HW2  325   1.675   1.907   3.720  1.1771  0.2037  1.0166
  164SOL     OW  326   1.715   3.171   3.049  0.0017 -0.3268  0.4416
  164SOL    HW1  327   1.679   3.196   3.134 -0.7880 -0.3426  0.1212
  164SOL    HW2  328   1.656   3.211   2.985  0.5239 -0.4089 -0.0999
  165SOL     OW  329   3.622   1.302   1.135 -0.0496  0.3766 -0.1288
  165SOL    HW1  330   3.568   1.372   1.171 -1.1360 -1.2131  1.5415
  165SOL    HW2  331   3.589   1.222   1.178  1.2188 -1.1396 -1.8316
  166SOL     OW  332   4.062   0.582   0.448  0.4075  0.2918  0.0682
  166SOL    HW1  333   4.127   0.652   0.445  0.5707  0.0767 -0.8069
  166SOL    HW2  334   4.052   0.554   0.357 -0.5108 -0.0502  0.2577
  167SOL     OW  335   3.006   0.402   0.168 -0.6819  0.2504  0.0510
  167SOL    HW1  336   3.063   0.336   0.128 -1.8772 -0.8732  0.1226
  167SOL    HW2  337   2.992   0.466   0.099  2.2649  1.6831  0.6333
  168SOL     OW  338   0.153   2.689   1.045  0.3676  0.2829  0.4409
  168SOL    HW1  339   0.108   2.614   1.008 -0.3515  1.4468 -1.1835
  168SOL    HW2  340   0.174   2.663   1.134  2.9112 -2.9956 -0.9216
  169SOL     OW  341   0.323   3.247   2.075  0.0288 -0.0040  0.5652
  169SOL    HW1  342   0.414   3.273   2.061  0.1328 -0.6464 -0.0219
  169SOL    HW2  343   0.326   3.190   2.152  0.1614 -0.2340  0.3893
  170SOL     OW  344   2.760   2.959   2.625  0.4564 -0.4904 -0.5690
  170SOL    HW1  345   2.718   3.010   2.694  1.5415 -0.3052 -0.0235
  170SOL    HW2  346   2.749   2.868   2.652 -0.4238 -0.4974 -0.9259
  171SOL     OW  347   1.300   0.618   1.476  0.3707  0.0271 -0.0129
  171SOL    HW1  348   1.226   0.635   1.534 -1.1718  1.0729 -2.1681
  171SOL    HW2  349   1.365   0.684   1.501  0.0071  0.0506  0.9130
  172SOL     OW  350   2.440   1.184   0.042  0.1631  0.1930  0.3545
  172SOL    HW1  351   2.431   1.135   0.124  0.4349  0.0611  0.3073
  172SOL    HW2  352   2.497   1.130  -0.012 -0.6004 -0.0658 -0.1602
  173SOL     OW  353   0.743   0.036   1.058 -0.1879  0.4397 -0.3185
  173SOL    HW1  354   0.758  -0.044   1.109  0.4825 -0.7814 -2.3847
  173SOL    HW2  355   0.789   0.104   1.106 -1.2530 -0.2381  1.8163
  174SOL     OW  356   3.454   1.616   2.276  0.5387  0.4642  0.2111
  174SOL    HW1  357   3.546   1.592   2.268 -0.0238 -1.7042 -0.5632
  174SOL    HW2  358   3.418   1.602   2.188 -1.1884 -2.0745  1.2070
  175SOL     OW  359   2.608   2.764   0.757  0.3446 -0.8184  0.5149
  175SOL    HW1  360   2.690   2.797   0.795  1.5789 -2.6131 -0.4214
  175SOL    HW2  361   2.577   2.699   0.819 -0.2237 -0.3628  0.7164
  176SOL     OW  362   1.136   2.508   0.925 -0.2050 -0.0443 -0.3373
  176SOL    HW1  363   1.147   2.549   0.839 -0.3823 -1.9463 -1.3199
  176SOL    HW2  364   1.043   2.517   0.945 -0.3105 -0.2659 -0.7180
  177SOL     OW  365   0.028   2.162   0.247 -0.3386  0.1333  0.2932
  177SOL    HW1  366  -0.062   2.188   0.265 -0.5737  0.3923 -1.3501
  177SOL    HW2  367   0.067   2.239   0.205 -0.3055 -1.0281 -1.9320
  178SOL     OW  368   3.190   0.226   2.377 -0.1022 -0.3182  0.3697
  178SOL    HW1  369   3.235   0.277   2.310 -1.6341  0.4540 -0.1165
  178SOL    HW2  370   3.214   0.136   2.359  0.7452  0.0188 -0.2540
  179SOL     OW  371   1.665   1.182   3.799  0.5023 -0.3147 -0.2647
  179SOL    HW1  372   1.591   1.165   3.742  0.5975  0.4511 -0.6237
  179SOL    HW2  373   1.662   1.111   3.864  0.3218 -1.1174 -1.1349
  180SOL     OW  374   0.502   0.018   1.453 -0.1640  0.0685 -0.3384
  180SOL    HW1  375   0.411   0.014   1.483  0.3265 -0.3508  1.2037
  180SOL    HW2  376   0.520   0.111   1.441  0.0447  0.4287  2.2520
  181SOL     OW  377   2.032   2.564   3.241  0.0909 -0.0118 -0.4561
  181SOL    HW1  378   2.113   2.534   3.198  0.5537  1.3321 -0.5744
  181SOL    HW2  379   1.991   2.484   3.273  0.5776 -0.9016 -1.9455
  182SOL     OW  380   0.422   0.486   3.892 -0.5293  0.1868 -0.3457
  182SOL    HW1  381   0.507   0.520   3.864  1.4909 -3.7775  0.2407
  182SOL    HW2  382   0.417   0.507   3.985  0.2552 -0.3939 -0.1730
  183SOL     OW  383   3.414   0.383   1.893 -0.0437 -0.2181  0.5660
  183SOL    HW1  384   3.500   0.391   1.852  0.0537  0.5312  0.8913
  183SOL    HW2  385   3.356   0.432   1.834  0.2131  1.4452  1.6149
  184SOL     OW  386   2.570   3.098   2.367  0.0031 -0.1772  0.1296
  184SOL    HW1  387   2.540   3.028   2.424 -2.0367  0.5088 -0.0125
  184SOL    HW2  388   2.566   3.177   2.421  2.0895 -0.0950  0.2361
  185SOL     OW  389   2.024   3.853   1.861  0.0683  0.1540  0.3218
  185SOL    HW1  390   1.964   3.807   1.802 -1.7187  2.3817  0.2608
  185SOL    HW2  391   2.108   3.809   1.849 -1.4253 -2.9343  0.1777
  186SOL     OW  392   2.454   3.246   2.187  0.0104  0.3305  0.2249
  186SOL    HW1  393   2.363   3.229   2.211 -0.3944 -1.0353 -2.0275
  186SOL    HW2  394   2.504   3.179   2.234 -0.5764 -1.1652 -1.1819
  187SOL     OW  395   1.536   1.998   2.946  0.0619  0.0046  0.1377
  187SOL    HW1  396   1.590   1.951   3.009 -1.0508 -0.6323  0.6341
  187SOL    HW2  397   1.599   2.036   2.884  1.1854  0.7161  1.6562
  188SOL     OW  398   1.532   1.183   3.020 -0.1305  0.5160  0.2474
  188SOL    HW1  399   1.627   1.190   3.031 -0.1605  0.8730  0.3135
  188SOL    HW2  400   1.508   1.265   2.976 -0.1875 -0.2756 -1.2785
  189SOL     OW  401   0.664   2.196   0.937  0.5872 -0.1923 -0.0152
  189SOL    HW1  402   0.649   2.143   1.015 -0.1447  0.6767  0.4528
  189SOL    HW2  403   0.615   2.276   0.953  0.8000  0.1847 -1.1784
  190SOL     OW  404   1.420   0.512   0.291  0.4372 -0.2823  0.1947
  190SOL    HW1  405   1.512   0.500   0.316  0.2028 -1.6730  0.4821
  190SOL    HW2  406   1.424   0.545   0.201  1.2232  1.1409  0.7118
  191SOL     OW  407   2.801   2.533   1.356 -0.1258 -0.3580  0.1641
  191SOL    HW1  408   2.858   2.572   1.422 -0.7142  0.4224  0.2188
  191SOL    HW2  409   2.766   2.454   1.398 -0.8791  0.3887  0.9778
  192SOL     OW  410   1.427   0.701   1.872  0.1168  0.2849 -0.1989
  192SOL    HW1  411   1.372   0.629   1.842  0.0231  0.2705  0.0090
  192SOL    HW2  412   1.513   0.660   1.886  0.1858  0.3097 -0.5313
  193SOL     OW  413   1.359   0.299   3.625 -0.0685  0.3676 -0.5913
  193SOL    HW1  414   1.276   0.289   3.579 -0.7383 -0.3205  0.7236
  193SOL    HW2  415   1.343   0.368   3.689  0.3867  0.2651 -0.3621
  194SOL     OW  416   3.995   0.294   1.827 -0.0443  0.7816 -0.0682
  194SOL    HW1  417   4.013   0.331   1.741 -0.6869 -2.1137 -1.5976
  194SOL    HW2  418   4.019   0.201   1.818 -2.4871 -0.1689  2.0615
  195SOL     OW  419   1.902   3.936   1.507  0.5119  0.6602 -0.0594
  195SOL    HW1  420   1.961   4.002   1.543  0.2940  0.9929 -0.3141
  195SOL    HW2  421   1.824   3.984   1.481 -0.2840  0.0894  1.1713
  196SOL     OW  422   3.690   2.276   0.819 -0.1376  0.1905 -0.2218
  196SOL    HW1  423   3.684   2.371   0.834 -0.5570  0.5416 -2.2293
  196SOL    HW2  424   3.602   2.243   0.840  0.3023  0.0253  1.5269
  197SOL     OW  425   0.524   3.126   4.000 -0.3446  0.0295  0.0018
  197SOL    HW1  426   0.520   3.062   4.071 -1.0331  0.1773  0.0975
  197SOL    HW2  427   0.524   3.211   4.045 -0.8389  0.1238 -0.1718
  198SOL     OW  428   1.585   2.911   0.963  0.1112 -0.1670  0.0702
  198SOL    HW1  429   1.657   2.952   1.010 -0.4769  0.8684  0.1025
  198SOL    HW2  430   1.626   2.866   0.889  0.7681  0.6327 -0.0592
  199SOL     OW  431   2.731   3.796   0.401 -0.0607  0.2351  0.1232
  199SOL    HW1  432   2.808   3.799   0.457 -0.5920 -0.0995  0.8930
  199SOL    HW2  433   2.715   3.703   0.386 -0.6419  0.2779  0.4412
  200SOL     OW  434   1.851   0.054   0.640  0.1625 -0.2429  0.2575
  200SOL    HW1  435   1.778  -0.007   0.650  0.4145 -0.4306  0.9743
  200SOL    HW2  436   1.883   0.039   0.550  0.8340 -1.8583  0.7377
  201SOL     OW  437   3.969   3.077   3.825 -0.3549 -0.0812  0.3798
  201SOL    HW1  438   3.877   3.054   3.813  0.0787 -0.9605 -1.8535
  201SOL    HW2  439   4.013   2.993   3.837  0.3024  0.2169  0.0713
  202SOL     OW  440   0.809   0.454   2.613  0.5513  0.4987 -0.1904
  202SOL    HW1  441   0.787   0.451   2.519  0.6636  1.1851 -0.2436
  202SOL    HW2  442   0.727   0.434   2.657  0.1288  1.7028 -0.4136
  203SOL     OW  443   1.547   3.393   0.810 -0.2527 -0.4356  0.4899
  203SOL    HW1  444   1.605   3.410   0.736  0.2738  0.4421  1.0820
  203SOL    HW2  445   1.520   3.302   0.799  1.2796 -0.8956  0.2182
  204SOL     OW  446   2.515   3.681   1.941 -0.1472 -0.3245  0.1713
  204SOL    HW1  447   2.596   3.719   1.976  0.9088 -2.3907  0.1818
  204SOL    HW2  448   2.504   3.723   1.856  1.5489 -0.7007 -0.2838
  205SOL     OW  449   1.698   1.449   0.082  0.4807 -0.3862  0.5219
  205SOL    HW1  450   1.777   1.414   0.123  0.0046 -0.5606  1.3174
  205SOL    HW2  451   1.730   1.501   0.008  1.2104 -2.3257 -0.5614
  206SOL     OW  452   0.831   1.870   0.883 -0.3478  0.9988 -0.0881
  206SOL    HW1  453   0.887   1.867   0.961  1.1760 -2.4378 -1.1548
  206SOL    HW2  454   0.746   1.839   0.914  0.0566  0.3245  0.3808
  207SOL     OW  455   0.589   2.026   1.181 -0.5149  0.3721 -0.3615
  207SOL    HW1  456   0.500   1.996   1.162 -0.9341  2.0034 -1.1700
  207SOL    HW2  457   0.591   2.038   1.276 -1.7613  2.0002 -0.4991
  208SOL     OW  458   1.415   3.641   0.795 -0.2164 -0.9360  0.4137
  208SOL    HW1  459   1.460   3.560   0.820 -1.1338 -1.0046  1.9121
  208SOL    HW2  460   1.342   3.612   0.741  2.4785 -0.7234 -3.8462
  209SOL     OW  461   3.445   0.366   2.892 -0.8567  0.3120  0.0837
  209SOL    HW1  462   3.367   0.382   2.840 -1.3045 -1.1476  0.2815
  209SOL    HW2  463   3.469   0.275   2.874  2.2507  1.3348 -1.9087
  210SOL     OW  464   2.866   0.391   2.949  0.4437  0.1088  0.0044
  210SOL    HW1  465   2.928   0.406   3.020 -0.7215  3.5209  0.4668
  210SOL    HW2  466   2.797   0.339   2.989  0.9449 -0.0677  0.6708
  211SOL     OW  467   1.641   3.583   1.523  0.1095 -0.0908  0.2350
  211SOL    HW1  468   1.554   3.548   1.541  0.0927  0.5554  1.5219
  211SOL    HW2  469   1.683   3.516   1.468 -1.1850 -0.3950 -0.4141
  212SOL     OW  470   2.662   0.612   2.742 -0.0694  0.7659  0.3690
  212SOL    HW1  471   2.613   0.681   2.786 -1.9029 -0.6506  0.6575
  212SOL    HW2  472   2.684   0.550   2.812 -0.9050 -0.3124 -0.2900
  213SOL     OW  473   3.698   2.916   2.719 -0.0799 -0.1546 -0.2612
  213SOL    HW1  474   3.788   2.894   2.697 -0.3124 -0.1689 -1.2633
  213SOL    HW2  475   3.664   2.838   2.763  0.7900  0.3581  1.3886
  214SOL     OW  476   1.316   0.158   3.058 -1.0593 -0.1178 -0.2749
  214SOL    HW1  477   1.392   0.100   3.051 -0.7271  0.2177  0.4474
  214SOL    HW2  478   1.334   0.228   2.996  0.1956  1.0053  1.2711
  215SOL     OW  479   0.974   2.434   1.448 -0.1587 -0.0306 -0.3244
  215SOL    HW1  480   0.922   2.491   1.504 -0.4410  1.8003 -2.3349
  215SOL    HW2  481   0.911   2.368   1.417  0.0989 -1.3430  1.7550
  216SOL     OW  482   0.633   3.567   1.778 -0.6640  0.2540  0.2043
  216SOL    HW1  483   0.692   3.604   1.843  0.5052  0.5999 -0.9979
  216SOL    HW2  484   0.629   3.633   1.709  2.3321 -2.0764 -2.5387
  217SOL     OW  485   3.943   1.399   3.392 -0.2493 -0.1020  0.2125
  217SOL    HW1  486   4.036   1.381   3.405 -0.0665  1.7377  2.0776
  217SOL    HW2  487   3.902   1.376   3.475 -1.0334  1.3479  0.2740
  218SOL     OW  488   3.521   0.685   3.561 -0.6498  0.0300  0.0784
  218SOL    HW1  489   3.580   0.747   3.519  0.4443 -1.8290 -1.2718
  218SOL    HW2  490   3.533   0.701   3.655  0.0785  1.4076 -0.2222
  219SOL     OW  491   1.046   2.320   4.024 -0.1265  0.2084  0.3813
  219SOL    HW1  492   1.095   2.346   3.946  0.2193 -0.1402  0.4760
  219SOL    HW2  493   1.053   2.395   4.083 -1.2797  0.8937 -0.3204
  220SOL     OW  494   0.447   3.260   3.768 -0.3503 -0.3046  0.3551
  220SOL    HW1  495   0.438   3.349   3.803 -0.0716 -0.3959  0.6602
  220SOL    HW2  496   0.479   3.208   3.841  0.4264 -0.4550 -0.0809
  221SOL     OW  497   3.076   0.192   2.856 -0.0664  0.1381 -0.4242
  221SOL    HW1  498   3.063   0.121   2.793  0.5638  1.6253 -2.3563
  221SOL    HW2  499   2.989   0.212   2.888 -0.2444 -1.5137  0.2006
  222SOL     OW  500   2.587   0.527   2.984 -0.0121  0.7433 -0.5915
  222SOL    HW1  501   2.494   0.529   3.005  0.2702 -0.1262  0.9334
  222SOL    HW2  502   2.627   0.483   3.059  1.9673  3.3783  0.0491
  223SOL     OW  503   2.471   1.320   0.666 -0.3497  0.4956  0.1143
  223SOL    HW1  504   2.554   1.285   0.636  0.1386  1.7353 -0.0467
  223SOL    HW2  505   2.475   1.313   0.761 -0.8244 -1.0817  0.0362
  224SOL     OW  506   2.525   0.414   0.375 -0.1657  0.6166 -0.2026
  224SOL    HW1  507   2.541   0.337   0.430  0.1352  1.3543  0.7575
  224SOL    HW2  508   2.439   0.399   0.337  0.3708 -0.7490 -0.9664
  225SOL     OW  509   0.464   3.457   2.778 -0.6571  0.0025  0.3662
  225SOL    HW1  510   0.470   3.509   2.858 -1.5504 -1.1182  1.2044
  225SOL    HW2  511   0.536   3.393   2.786 -0.4619  0.1792  0.0466
  226SOL     OW  512   0.367   3.572   2.048 -1.1558 -0.0811  0.0159
  226SOL    HW1  513   0.315   3.552   1.971 -0.9666  3.4497 -1.2076
  226SOL    HW2  514   0.436   3.631   2.017 -0.2884  0.4589  2.6631
  227SOL     OW  515   2.943   1.242   3.154 -0.1549  0.9392 -0.1540
  227SOL    HW1  516   2.916   1.178   3.088 -0.8108  0.9664  0.0808
  227SOL    HW2  517   3.031   1.268   3.127  0.8174 -1.2900  0.6542
  228SOL     OW  518   3.643   1.760   2.022  0.3870 -0.0616 -0.4547
  228SOL    HW1  519   3.555   1.797   2.008 -0.2619 -1.5559 -0.5245
  228SOL    HW2  520   3.702   1.823   1.981 -0.4310  2.1517  1.5816
  229SOL     OW  521   0.046   1.235   0.499 -0.5401 -0.0396 -0.3895
  229SOL    HW1  522   0.044   1.196   0.587 -0.2027 -0.6686 -0.6523
  229SOL    HW2  523   0.122   1.293   0.500  1.7831 -2.8479 -1.3889
  230SOL     OW  524   3.365   1.330   1.314 -0.3402  0.0396  0.1963
  230SOL    HW1  525   3.387   1.258   1.373  0.4317 -0.1950 -0.3581
  230SOL    HW2  526   3.342   1.288   1.232  2.0849  0.4215 -0.7770
  231SOL     OW  527   3.958   1.278   2.667 -0.5666 -0.1288  0.4281
  231SOL    HW1  528   3.895   1.295   2.738 -1.0852 -2.6281  0.6859
  231SOL    HW2  529   3.908   1.227   2.603  0.5818 -0.1236 -0.4951
  232SOL     OW  530   0.319   0.773   1.993 -0.4342  0.5624 -0.1972
  232SOL    HW1  531   0.397   0.776   1.937  0.6660 -2.0552  1.0330
  232SOL    HW2  532   0.341   0.829   2.067  0.0112  0.3990 -0.1971
  233SOL     OW  533   1.565   2.532   2.450 -0.0039 -0.4601  0.2825
  233SOL    HW1  534   1.563   2.557   2.542 -0.1831  1.4800 -0.1983
  233SOL    HW2  535   1.532   2.610   2.404 -0.8389 -1.7233 -1.3457
  234SOL     OW  536   2.205   0.873   2.684  0.2084 -0.0621  0.0162
  234SOL    HW1  537   2.209   0.967   2.667  0.6088 -0.3644 -1.6730
  234SOL    HW2  538   2.127   0.843   2.637  0.2244 -0.6294  0.3341
  235SOL     OW  539   2.519   4.004   0.963 -0.4286  0.6327 -0.1989
  235SOL    HW1  540   2.470   3.987   1.043 -0.4740  0.8146 -0.1868
  235SOL    HW2  541   2.550   4.094   0.972  1.4137 -0.0330  0.5824
  236SOL     OW  542   3.222   2.502   1.371  0.2329  0.6332 -0.1841
  236SOL    HW1  543   3.154   2.557   1.409  0.4169  0.7414 -0.0081
  236SOL    HW2  544   3.195   2.489   1.280 -1.4563 -1.5552  0.5230
  237SOL     OW  545   3.394   1.531   3.602 -0.0303  0.4736 -0.0197
  237SOL    HW1  546   3.323   1.509   3.542 -1.2670  0.0502  1.5085
  237SOL    HW2  547   3.473   1.504   3.557 -0.9808 -0.6806 -1.0771
  238SOL     OW  548   1.280   2.991   2.118 -0.2531 -0.1248  0.2034
  238SOL    HW1  549   1.194   2.984   2.159 -0.3132 -0.1264  0.0780
  238SOL    HW2  550   1.322   3.064   2.163 -0.5232  0.2162 -0.0997
  239SOL     OW  551   0.714   0.111   2.486 -0.2073  0.7250 -0.2045
  239SOL    HW1  552   0.750   0.148   2.567 -1.0942  2.2645 -0.4744
  239SOL    HW2  553   0.655   0.041   2.516  2.5050 -1.5366  0.2585
  240SOL     OW  554   3.722   3.094   0.584 -0.1669  0.0375  0.0251
  240SOL    HW1  555   3.649   3.054   0.632 -0.0924 -0.5800 -0.3618
  240SOL    HW2  556   3.681   3.131   0.505  0.1530 -1.8932 -1.1147
  241SOL     OW  557   0.244   3.039   3.819  0.0987  0.2816  0.1208
  241SOL    HW1  558   0.255   3.000   3.906  0.6191  1.7700  0.7509
  241SOL    HW2  559   0.315   3.103   3.812 -1.1345  1.6319 -0.5720
  242SOL     OW  560   0.238   3.333   0.005  0.3734 -0.1147  0.0685
  242SOL    HW1  561   0.264   3.373  -0.078 -1.5524  0.1613 -0.4678
  242SOL    HW2  562   0.258   3.399   0.071  0.8679  0.1319 -0.3631
  243SOL     OW  563   0.915   3.948   2.685 -0.2475  0.1851 -0.0690
  243SOL    HW1  564   0.969   3.973   2.760  0.8439  0.1239 -0.8129
  243SOL    HW2  565   0.839   3.906   2.724  1.3794 -1.9869  0.9801
  244SOL     OW  566   0.031   3.339   1.308  0.3662  0.1072 -0.2869
  244SOL    HW1  567   0.023   3.388   1.226  0.0114 -0.9264 -0.8826
  244SOL    HW2  568   0.111   3.287   1.296 -0.6734 -1.4637 -0.7767
  245SOL     OW  569   3.833   0.761   0.052  0.1430 -0.1213  0.0424
  245SOL    HW1  570   3.755   0.713   0.078  0.0590  0.3661  0.7249
  245SOL    HW2  571   3.900   0.734   0.115  0.1797  0.4169  0.2345
  246SOL     OW  572   2.991   1.259   0.486 -0.3732 -0.0980 -0.5022
  246SOL    HW1  573   3.019   1.282   0.397  0.9801 -1.0571 -0.3686
  246SOL    HW2  574   3.069   1.275   0.540 -1.0527  0.0866  0.4455
  247SOL     OW  575   2.301   0.103   2.215  0.4642  0.3917  0.1795
  247SOL    HW1  576   2.257   0.042   2.156 -0.1711  1.1409 -0.1432
  247SOL    HW2  577   2.393   0.102   2.188  0.8626 -1.8371  1.4095
  248SOL     OW  578   2.778   1.801   3.639 -0.1181  0.2487 -0.1449
  248SOL    HW1  579   2.722   1.726   3.619  0.2779  0.1193 -0.7942
  248SOL    HW2  580   2.718   1.866   3.677 -0.5985 -0.1046 -0.2845
  249SOL     OW  581   2.754   2.643   0.269  0.2989  0.0368  0.3144
  249SOL    HW1  582   2.697   2.571   0.241  1.7669 -1.3670  0.7669
  249SOL    HW2  583   2.755   2.704   0.195 -2.9518  0.9178  0.8581
  250SOL     OW  584   3.644   0.909   2.379 -0.1623  0.0764  0.1273
  250SOL    HW1  585   3.661   0.830   2.431 -1.3126  1.4808  2.8303
  250SOL    HW2  586   3.555   0.896   2.345  0.7688 -1.0655 -2.1063
  251SOL     OW  587   3.935   0.631   2.346 -0.3141 -0.2430 -0.0419
  251SOL    HW1  588   3.877   0.639   2.271 -0.4728 -0.3758  0.0642
  251SOL    HW2  589   4.008   0.690   2.327 -0.1669 -0.5547 -0.4706
  252SOL     OW  590   2.625   2.864   0.047  0.4121  0.2685  0.6491
  252SOL    HW1  591   2.712   2.828   0.027  0.5542  0.7438  0.4064
  252SOL    HW2  592   2.567   2.824  -0.018  0.7812  1.4025 -0.3790
  253SOL     OW  593   2.610   0.590   0.842 -0.2001  0.7850  0.2012
  253SOL    HW1  594   2.590   0.626   0.929 -1.2514  0.2433  0.2009
  253SOL    HW2  595   2.602   0.665   0.783 -1.7159  0.7165  0.2874
  254SOL     OW  596   2.921   0.634   1.594 -0.0941 -0.3125 -0.5372
  254SOL    HW1  597   2.918   0.577   1.517  0.2462  1.5371 -1.9907
  254SOL    HW2  598   3.014   0.644   1.613 -0.1889 -1.2596  0.5593
  255SOL     OW  599   1.765   1.384   2.084  0.7758  0.5548  0.3431
  255SOL    HW1  600   1.692   1.409   2.027  0.8780  0.0419 -0.0173
  255SOL    HW2  601   1.772   1.289   2.075  0.6195  0.4311  1.4417
  256SOL     OW  602   2.375   3.811   0.059 -0.1471  0.1326  0.0357
  256SOL    HW1  603   2.458   3.855   0.074 -0.7255  1.3023 -0.0973
  256SOL    HW2  604   2.399   3.725   0.023  0.9912  0.5202 -0.1526
  257SOL     OW  605   2.286   1.182   2.624 -0.4031  0.2620 -0.1050
  257SOL    HW1  606   2.325   1.136   2.550 -0.9215  1.0683 -0.8922
  257SOL    HW2  607   2.250   1.262   2.587 -2.5340 -0.2801  0.6337
  258SOL     OW  608   0.021   0.796   0.769 -0.2982  0.6266 -0.3169
  258SOL    HW1  609  -0.061   0.844   0.784  0.8822  2.1276  1.6229
  258SOL    HW2  610   0.049   0.824   0.682 -1.1286  1.2532 -0.3990
  259SOL     OW  611   3.768   1.586   2.640  0.0045  0.3486  0.0816
  259SOL    HW1  612   3.774   1.644   2.564  0.3927 -1.0317 -0.9699
  259SOL    HW2  613   3.858   1.564   2.661 -0.1856 -1.9562 -1.2115
  260SOL     OW  614   2.131   0.315   1.993  0.0221 -0.2215  0.0113
  260SOL    HW1  615   2.117   0.334   2.086 -0.4361 -0.3513 -0.0293
  260SOL    HW2  616   2.093   0.228   1.980  1.3931 -0.8406  0.0164
  261SOL     OW  617   2.063   3.982   3.410 -0.5411 -0.1027  0.7859
  261SOL    HW1  618   2.039   3.971   3.318 -0.9454 -1.3625  1.0167
  261SOL    HW2  619   2.146   4.028   3.408  0.6232 -2.1123 -0.3394
  262SOL     OW  620   2.868   0.767   3.208 -0.3077  0.1671 -0.8247
  262SOL    HW1  621   2.844   0.816   3.286  0.2682 -0.4915 -0.2281
  262SOL    HW2  622   2.851   0.675   3.230 -0.1908 -0.0221 -1.4839
  263SOL     OW  623   3.513   2.392   1.877  0.0820 -0.4218 -0.3451
  263SOL    HW1  624   3.597   2.424   1.842  0.2032 -0.3590 -0.0061
  263SOL    HW2  625   3.450   2.408   1.807 -0.2661  2.4472  0.4868
  264SOL     OW  626   3.914   3.508   1.408  0.2942 -0.2709 -0.0354
  264SOL    HW1  627   3.835   3.517   1.356  0.3196  0.7794  0.0848
  264SOL    HW2  628   3.974   3.457   1.353  0.8417  1.9758 -1.6578
  265SOL     OW  629   1.891   0.180   3.327  0.3444  0.4270 -0.4587
  265SOL    HW1  630   1.979   0.153   3.352  0.6096  1.4678 -0.2369
  265SOL    HW2  631   1.837   0.155   3.402  0.2967 -0.9303 -0.9179
  266SOL     OW  632   1.895   1.234   3.631 -0.8556 -0.3361 -0.8242
  266SOL    HW1  633   1.900   1.141   3.607 -2.6876 -0.8725  0.6047
  266SOL    HW2  634   1.817   1.240   3.687 -0.4761  1.9783 -0.4439
  267SOL     OW  635   0.034   2.634   2.899 -0.0193 -0.0090  0.3802
  267SOL    HW1  636   0.041   2.547   2.861 -1.0721 -0.4945  1.2491
  267SOL    HW2  637   0.058   2.622   2.991 -1.1000  0.4091  0.7335
  268SOL     OW  638   3.727   1.430   3.207 -0.3658 -0.3829  0.2862
  268SOL    HW1  639   3.722   1.484   3.128  0.7901 -1.7988 -0.8268
  268SOL    HW2  640   3.818   1.398   3.208 -0.5280 -0.8742  1.8651
  269SOL     OW  641   1.071   3.804   0.432  0.0272  0.0193 -0.1252
  269SOL    HW1  642   1.147   3.746   0.427  0.5134  0.6336 -0.0576
  269SOL    HW2  643   1.003   3.751   0.472  1.4576  0.4938  3.2621
  270SOL     OW  644   2.469   3.153   1.379 -0.3511 -0.9002 -0.8088
  270SOL    HW1  645   2.490   3.137   1.287 -2.8750 -1.5485 -1.3497
  270SOL    HW2  646   2.374   3.158   1.381 -0.3249 -0.1968  1.6885
  271SOL     OW  647   0.050   1.866   3.917 -0.3855 -0.0875 -0.4865
  271SOL    HW1  648   0.073   1.812   3.841  0.8045  1.0096 -0.9325
  271SOL    HW2  649   0.133   1.883   3.961 -0.7822  1.0440 -0.1371
  272SOL     OW  650   2.614   0.888   2.319 -0.2117 -0.7250 -0.1092
  272SOL    HW1  651   2.635   0.875   2.227  0.9077 -0.9212  0.1626
  272SOL    HW2  652   2.592   0.801   2.352 -0.2779 -0.7095 -0.1126
  273SOL     OW  653   3.335   1.953   2.342  0.4034 -0.2174 -0.6210
  273SOL    HW1  654   3.284   2.031   2.322  1.9701  0.6548 -1.3537
  273SOL    HW2  655   3.331   1.900   2.262  0.8328 -0.0381 -0.7625
  274SOL     OW  656   2.328   0.488   0.859  0.6521  0.4134  0.2625
  274SOL    HW1  657   2.399   0.548   0.838  0.6973  0.0909 -0.5571
  274SOL    HW2  658   2.287   0.469   0.774 -1.1766  1.5479  0.8442
  275SOL     OW  659   2.274   3.870   2.432 -0.5506  0.1471  0.3652
  275SOL    HW1  660   2.296   3.870   2.339  0.2776  0.2247  0.5529
  275SOL    HW2  661   2.215   3.944   2.443  0.0618  0.6924  0.0591
  276SOL     OW  662   3.566   2.170   2.568 -0.0701  0.3802 -0.3029
  276SOL    HW1  663   3.603   2.084   2.548  0.5975  0.5759  0.0520
  276SOL    HW2  664   3.642   2.226   2.583 -0.5038  0.6488  1.0640
  277SOL     OW  665   1.451   1.074   0.620  0.1740 -0.2197  0.0307
  277SOL    HW1  666   1.545   1.089   0.610  0.3696 -0.2283  1.6193
  277SOL    HW2  667   1.445   0.998   0.677 -0.8119 -0.1690  0.0130
  278SOL     OW  668   1.280   1.339   3.887  0.0174 -0.1191 -0.6177
  278SOL    HW1  669   1.276   1.392   3.808 -0.4113  0.8304  0.0309
  278SOL    HW2  670   1.192   1.343   3.923  0.8360  1.7485  1.3685
  279SOL     OW  671   3.199   0.942   3.923  0.2055 -0.3269 -0.3801
  279SOL    HW1  672   3.232   1.018   3.971 -0.0843 -1.5575  1.9410
  279SOL    HW2  673   3.272   0.913   3.868  1.3667 -0.1532  1.0268
  280SOL     OW  674   3.296   0.906   3.075 -0.0371 -0.0962  0.5149
  280SOL    HW1  675   3.208   0.877   3.049 -0.2155  0.2482  0.7257
  280SOL    HW2  676   3.320   0.972   3.010  0.4440 -0.8279 -0.0707
  281SOL     OW  677   1.565   2.005   1.317 -0.3245 -0.3780  0.3435
  281SOL    HW1  678   1.517   2.050   1.387 -2.8791 -1.2671 -0.7283
  281SOL    HW2  679   1.565   2.068   1.244 -2.2510 -1.3188 -0.5275
  282SOL     OW  680   2.953   1.322   2.370  0.2852 -0.7143  0.1934
  282SOL    HW1  681   3.011   1.256   2.332 -0.4872 -0.9079 -0.6794
  282SOL    HW2  682   3.009   1.398   2.383  1.4329 -1.8107  2.1258
  283SOL     OW  683   3.322   1.503   1.703  0.4575  0.2210  0.1128
  283SOL    HW1  684   3.398   1.511   1.762  0.2226  0.9981  0.3191
  283SOL    HW2  685   3.340   1.567   1.634 -0.8399  1.7420  1.0965
  284SOL     OW  686   3.492   3.123   1.814 -0.2065 -0.3731  0.2830
  284SOL    HW1  687   3.526   3.137   1.726 -1.2719 -1.6863 -0.3631
  284SOL    HW2  688   3.402   3.092   1.801 -0.8165  0.5840  1.8718
  285SOL     OW  689   3.372   3.824   3.570  0.2795 -0.5998 -0.1240
  285SOL    HW1  690   3.401   3.758   3.507  0.8828 -0.3058 -0.1583
  285SOL    HW2  691   3.291   3.859   3.532  0.1016 -1.1218 -0.2388
  286SOL     OW  692   1.374   2.264   3.550 -0.1009 -0.1164 -0.2255
  286SOL    HW1  693   1.314   2.231   3.617 -1.3848  0.4111 -1.0525
  286SOL    HW2  694   1.459   2.270   3.593 -1.0879  1.2320  1.6651
  287SOL     OW  695   3.216   2.939   0.751  0.0750 -0.1136  0.3365
  287SOL    HW1  696   3.201   3.032   0.735 -2.8081 -0.9073 -2.6171
  287SOL    HW2  697   3.278   2.912   0.684  0.1277 -0.5195  0.5429
  288SOL     OW  698   3.553   2.839   3.213 -0.8248 -0.1359 -0.1674
  288SOL    HW1  699   3.524   2.748   3.209 -0.7258 -0.1446 -0.8114
  288SOL    HW2  700   3.649   2.834   3.210 -0.8291  0.0038 -0.6505
  289SOL     OW  701   0.482   3.817   1.944  0.3498 -0.4621  0.0775
  289SOL    HW1  702   0.532   3.848   1.868 -0.5321  0.4796 -0.1401
  289SOL    HW2  703   0.433   3.894   1.972  0.5404 -0.8475  1.5119
  290SOL     OW  704   2.209   3.345   3.635 -0.0367 -0.2419  0.3124
  290SOL    HW1  705   2.239   3.426   3.676  2.3031 -0.1643 -1.3314
  290SOL    HW2  706   2.289   3.304   3.603 -1.5183 -1.2400 -2.3920
  291SOL     OW  707   2.862   3.745   3.210  0.2363 -0.8844 -0.2480
  291SOL    HW1  708   2.817   3.725   3.292 -2.0983 -1.6757 -1.6390
  291SOL    HW2  709   2.869   3.841   3.209  0.3735 -0.8673  0.8751
  292SOL     OW  710   3.818   1.772   0.274  0.0083 -0.1810 -0.4060
  292SOL    HW1  711   3.843   1.706   0.339 -0.5713  1.3508  1.4709
  292SOL    HW2  712   3.799   1.721   0.195  1.8113 -2.0290  0.2488
  293SOL     OW  713   1.811   1.411   0.836 -0.7299  0.7380 -0.1940
  293SOL    HW1  714   1.893   1.460   0.846 -0.5863  0.1519  1.9216
  293SOL    HW2  715   1.774   1.407   0.924 -2.0221 -0.7321 -0.7556
  294SOL     OW  716   0.381   1.383   3.720  0.2809 -0.1218 -0.3017
  294SOL    HW1  717   0.289   1.391   3.693  0.1834 -2.9209 -1.1616
  294SOL    HW2  718   0.412   1.473   3.730 -2.9136  0.9393  1.4052
  295SOL     OW  719   2.735   1.687   2.750 -0.3326 -0.7873  0.4350
  295SOL    HW1  720   2.814   1.647   2.715  0.5976  1.9274 -0.8302
  295SOL    HW2  721   2.664   1.651   2.696  0.6401  0.2732 -1.6630
  296SOL     OW  722   0.256   3.817   1.428  0.5143 -0.0885 -0.0895
  296SOL    HW1  723   0.202   3.750   1.470  0.8879 -0.0672  0.4385
  296SOL    HW2  724   0.220   3.825   1.340  0.4722 -0.9909 -0.1645
  297SOL     OW  725   2.281   2.522   0.666  0.0057 -0.4682 -0.0853
  297SOL    HW1  726   2.246   2.504   0.578  0.4075  0.7411 -0.5056
  297SOL    HW2  727   2.220   2.586   0.703  1.3965  1.2008 -0.5926
  298SOL     OW  728   0.512   0.166   1.061 -0.4344  0.3105  0.7679
  298SOL    HW1  729   0.498   0.188   1.153  1.0360  0.5622  0.9609
  298SOL    HW2  730   0.596   0.120   1.060  0.0915  1.2497 -0.5786
  299SOL     OW  731   3.181   3.901   0.392  0.1148 -0.1387  0.0187
  299SOL    HW1  732   3.231   3.840   0.337  0.1207  0.0959 -0.2400
  299SOL    HW2  733   3.247   3.961   0.427  0.0505  0.0141 -0.1180
  300SOL     OW  734   1.071   0.803   3.788  0.1365 -0.0507 -0.3254
  300SOL    HW1  735   1.076   0.733   3.853  0.5716 -1.4423 -1.7941
  300SOL    HW2  736   1.136   0.867   3.817  1.0759 -1.1425  0.0619
  301SOL     OW  737   1.211   1.074   0.808  0.3355  0.0447 -0.0496
  301SOL    HW1  738   1.240   0.998   0.857 -0.7761 -0.3367  0.0434
  301SOL    HW2  739   1.290   1.106   0.764  0.7046 -1.5210 -0.5845
  302SOL     OW  740   2.974   0.586   2.751  0.0708 -0.1475  0.2503
  302SOL    HW1  741   2.914   0.512   2.764 -0.3489  0.1018 -0.2215
  302SOL    HW2  742   2.943   0.653   2.812  0.3852 -0.3190  0.6016
  303SOL     OW  743   1.864   1.767   1.585  0.3722 -0.1148  0.1813
  303SOL    HW1  744   1.940   1.793   1.636  0.6400 -1.1472  0.3306
  303SOL    HW2  745   1.852   1.837   1.522  1.1957  0.2514  0.4195
  304SOL     OW  746   0.308   3.543   1.025  0.4632 -0.2732 -0.0083
  304SOL    HW1  747   0.375   3.534   1.093 -0.3426 -2.3561  0.5830
  304SOL    HW2  748   0.346   3.605   0.962  1.8596  0.5335  1.5493
  305SOL     OW  749   1.770   1.780   2.709 -0.2764 -0.1011 -0.4760
  305SOL    HW1  750   1.721   1.768   2.627 -1.7600  1.7242  0.0765
  305SOL    HW2  751   1.750   1.869   2.736 -0.8130 -1.0201  2.5286
  306SOL     OW  752   3.778   0.792   3.100 -0.1374  0.4802 -0.8327
  306SOL    HW1  753   3.780   0.861   3.166 -0.1107 -0.7844  0.5489
  306SOL    HW2  754   3.861   0.746   3.111 -1.4307 -1.6893  0.4736
  307SOL     OW  755   3.059   3.922   1.717 -0.2829  0.1098  0.1362
  307SOL    HW1  756   3.120   3.921   1.791  1.2225 -0.8516 -1.0708
  307SOL    HW2  757   3.006   3.843   1.729 -1.0966  0.7575  0.9887
  308SOL     OW  758   2.043   0.400   2.799  0.0189  0.3851  0.8612
  308SOL    HW1  759   2.019   0.330   2.738 -1.1607  2.5598 -1.3605
  308SOL    HW2  760   1.987   0.386   2.875 -1.7603  0.1031 -0.4433
  309SOL     OW  761   1.089   0.265   3.519 -0.5736 -0.3394  0.5427
  309SOL    HW1  762   1.083   0.355   3.553  0.2181 -0.6353  1.5152
  309SOL    HW2  763   0.999   0.242   3.496 -0.9725  0.2909  1.3954
  310SOL     OW  764   2.959   3.174   3.155  0.1349 -0.1854  0.0246
  310SOL    HW1  765   2.926   3.264   3.158  0.8764  0.0885  2.2790
  310SOL    HW2  766   2.955   3.150   3.063 -1.0735  1.7799 -0.5019
  311SOL     OW  767   0.901   1.972   1.147  0.1615 -0.2736  0.2873
  311SOL    HW1  768   0.944   2.038   1.093  0.0465 -0.9277 -0.6231
  311SOL    HW2  769   0.826   2.017   1.185 -0.1699 -0.0027 -0.6777
  312SOL     OW  770   0.871   4.051   1.506 -0.2623  0.1208  0.0431
  312SOL    HW1  771   0.848   4.110   1.577 -3.0547 -1.8511  0.9214
  312SOL    HW2  772   0.967   4.048   1.507 -0.1818  0.7808  3.2249
  313SOL     OW  773   3.785   1.351   2.879  0.2096  0.0680 -0.7753
  313SOL    HW1  774   3.756   1.272   2.924 -0.6644  0.2544 -1.0030
  313SOL    HW2  775   3.708   1.407   2.876  0.4489  0.3716 -1.8147
  314SOL     OW  776   1.318   1.355   1.288 -0.2846 -0.4964 -0.1436
  314SOL    HW1  777   1.303   1.449   1.289 -3.6164 -0.8125  2.8409
  314SOL    HW2  778   1.261   1.322   1.219  1.8375 -0.3538 -2.0683
  315SOL     OW  779   3.144   0.214   1.892 -0.0026 -0.0087 -0.5519
  315SOL    HW1  780   3.209   0.241   1.827 -0.3805  2.5458  0.0255
  315SOL    HW2  781   3.060   0.226   1.849 -0.2031  0.2254 -0.1078
  316SOL     OW  782   1.934   1.334   0.178  0.3352  0.2135  0.0805
  316SOL    HW1  783   2.025   1.364   0.176  0.5712 -0.5194 -1.2069
  316SOL    HW2  784   1.906   1.350   0.268  2.5300 -1.7529  1.2544
  317SOL     OW  785   0.523   3.413   2.209 -0.1309 -0.0190 -0.2731
  317SOL    HW1  786   0.454   3.461   2.163 -1.0939 -0.1077  1.0408
  317SOL    HW2  787   0.582   3.384   2.139 -0.5591  1.3963 -1.2766
  318SOL     OW  788   2.166   3.389   3.113  0.4150  0.0289 -0.5263
  318SOL    HW1  789   2.185   3.412   3.022 -0.9415 -2.7749 -1.6280
  318SOL    HW2  790   2.078   3.424   3.129  1.6408  2.8753  0.7263
  319SOL     OW  791   2.952   1.000   2.096 -0.0365  0.9435 -0.5411
  319SOL    HW1  792   2.975   0.938   2.164 -1.5478  1.4205  0.4418
  319SOL    HW2  793   3.009   1.076   2.112  1.4988  0.0501 -1.4815
  320SOL     OW  794   2.674   2.399   3.793 -0.4071  0.3255 -0.3238
  320SOL    HW1  795   2.693   2.491   3.775  0.7427 -0.2766 -2.5057
  320SOL    HW2  796   2.626   2.368   3.716 -1.8088 -0.6592  0.8715
  321SOL     OW  797   3.692   1.763   3.395 -0.6660 -0.2326 -0.2184
  321SOL    HW1  798   3.783   1.740   3.379 -0.4464 -0.1306  0.8033
  321SOL    HW2  799   3.646   1.679   3.398 -0.6545 -0.2687 -0.9967
  322SOL     OW  800   1.494   2.521   1.373 -0.2221  0.1815  0.5877
  322SOL    HW1  801   1.401   2.524   1.394  0.0602  0.5929  1.9143
  322SOL    HW2  802   1.536   2.500   1.457  1.0021  1.8809  0.4484
  323SOL     OW  803   3.474   0.413   0.630 -0.6112  0.3724  0.0220
  323SOL    HW1  804   3.437   0.501   0.621 -0.1680  0.5205 -0.4308
  323SOL    HW2  805   3.408   0.355   0.592 -0.5089  0.6063 -0.5284
  324SOL     OW  806   2.064   1.087   1.960  0.5372 -0.6979  0.2308
  324SOL    HW1  807   2.131   1.020   1.944  0.0881 -1.6892  2.1553
  324SOL    HW2  808   2.036   1.072   2.051 -1.8883  0.0258 -0.3128
  325SOL     OW  809   2.109   2.292   0.868 -0.0924 -0.6486  0.2101
  325SOL    HW1  810   2.137   2.293   0.959  0.5645 -0.9324  0.0133
  325SOL    HW2  811   2.104   2.385   0.843  0.0569 -0.5806  0.4319
  326SOL     OW  812   0.575   1.470   3.414  0.4944  0.7573  0.1118
  326SOL    HW1  813   0.529   1.387   3.423 -0.2616  0.8755 -2.0391
  326SOL    HW2  814   0.548   1.521   3.491 -1.6275  0.1744 -0.1824
  327SOL     OW  815   1.832   0.160   2.415 -0.2960  0.0896  0.4177
  327SOL    HW1  816   1.759   0.098   2.425  0.4179 -0.8325  0.0970
  327SOL    HW2  817   1.859   0.149   2.324 -0.8668  1.7006  0.0281
  328SOL     OW  818   1.682   3.102   0.196 -0.1680  0.1996 -0.0855
  328SOL    HW1  819   1.750   3.105   0.263  0.0273  0.1605 -0.2816
  328SOL    HW2  820   1.709   3.167   0.131 -0.2226  0.0557 -0.2527
  329SOL     OW  821   3.992   3.037   0.029  0.5361 -0.4158  0.6899
  329SOL    HW1  822   3.944   3.114  -0.001 -1.2407 -0.5371  2.9809
  329SOL    HW2  823   4.076   3.042  -0.017 -0.0895  2.0527 -0.3092
  330SOL     OW  824   3.797   1.362   3.680 -0.2185 -0.1346 -0.3627
  330SOL    HW1  825   3.750   1.330   3.756 -1.4838  0.8375 -0.6931
  330SOL    HW2  826   3.873   1.408   3.716 -2.1846  2.6890  0.5924
  331SOL     OW  827   0.555   3.797   1.079 -0.6366  0.0345 -0.3896
  331SOL    HW1  828   0.623   3.768   1.019 -0.5741  0.8883 -0.7387
  331SOL    HW2  829   0.497   3.851   1.026 -1.3513 -0.3209  0.0032
  332SOL     OW  830   1.631   3.523   2.679  0.1036 -0.2939 -0.5650
  332SOL    HW1  831   1.657   3.474   2.757 -1.6042  1.1714  0.9936
  332SOL    HW2  832   1.693   3.596   2.675  0.3798 -0.5383 -0.7589
  333SOL     OW  833   3.642   0.714   0.695  0.0882  0.1760 -0.0573
  333SOL    HW1  834   3.635   0.714   0.790  0.6762  0.4297 -0.0163
  333SOL    HW2  835   3.732   0.687   0.677 -0.0316  0.0878 -0.5428
  334SOL     OW  836   1.899   0.713   2.288 -0.1698  0.4833 -0.0848
  334SOL    HW1  837   1.981   0.694   2.243 -0.5643  1.3450 -1.2249
  334SOL    HW2  838   1.922   0.717   2.381  0.8241 -0.5279 -0.2805
  335SOL     OW  839   1.210   3.277   4.063 -0.1302 -0.3568  0.3227
  335SOL    HW1  840   1.130   3.324   4.088 -0.2977 -0.7044  0.4219
  335SOL    HW2  841   1.206   3.195   4.114  0.1183 -0.5501 -0.0037
  336SOL     OW  842   2.215   2.207   0.630 -0.5028 -0.5297  0.3114
  336SOL    HW1  843   2.207   2.228   0.723  0.3035 -0.3155  0.3338
  336SOL    HW2  844   2.136   2.244   0.591 -0.7569 -0.4565  0.8783
  337SOL     OW  845   2.756   1.022   0.203  0.4173  0.2983  0.3359
  337SOL    HW1  846   2.664   0.997   0.207  0.4458  0.2531  0.7470
  337SOL    HW2  847   2.776   1.024   0.109 -0.3814  1.6837  0.1607
  338SOL     OW  848   3.001   2.186   1.623  0.4518 -0.2662  0.4927
  338SOL    HW1  849   2.981   2.189   1.530 -1.2740  1.7276  0.8549
  338SOL    HW2  850   3.045   2.101   1.636 -2.0369 -2.0190 -1.5738
  339SOL     OW  851   3.860   3.164   1.820 -0.3923 -0.5572  0.2999
  339SOL    HW1  852   3.824   3.150   1.907  0.1163  1.8746  0.9847
  339SOL    HW2  853   3.786   3.196   1.768 -0.9116 -2.8610 -0.4772
  340SOL     OW  854   1.184   0.422   0.998  0.0722 -0.4372  0.5847
  340SOL    HW1  855   1.132   0.502   0.994  0.3893 -0.2860 -1.3874
  340SOL    HW2  856   1.209   0.405   0.907  0.5781 -2.4130  1.0505
  341SOL     OW  857   1.302   2.214   1.910  0.5644  0.2393 -0.1036
  341SOL    HW1  858   1.234   2.212   1.843  0.7713  2.9343 -0.5274
  341SOL    HW2  859   1.382   2.188   1.864  0.0147 -2.2755  0.2374
  342SOL     OW  860   0.900   0.452   2.094  0.2079 -0.4716 -0.3807
  342SOL    HW1  861   0.930   0.364   2.114 -0.7040 -0.9458 -1.0283
  342SOL    HW2  862   0.916   0.502   2.175  0.2125 -1.3631  0.1835
  343SOL     OW  863   0.989   3.983   3.755 -0.2951  0.2860  0.0523
  343SOL    HW1  864   1.019   3.909   3.703 -1.9581 -1.0515  0.9089
  343SOL    HW2  865   1.066   4.040   3.761  1.0424 -1.3451 -0.6160
  344SOL     OW  866   1.962   3.921   0.162 -0.4479 -0.1842  0.0738
  344SOL    HW1  867   2.012   3.858   0.215 -1.0467  0.3553  1.3234
  344SOL    HW2  868   2.023   3.992   0.145 -0.3385 -0.2237  0.2975
  345SOL     OW  869   2.112   0.840   1.318  0.1668  0.6142 -0.1960
  345SOL    HW1  870   2.124   0.746   1.303  1.4787  0.9138 -1.3096
  345SOL    HW2  871   2.200   0.872   1.342 -0.1634  1.6200 -0.2597
  346SOL     OW  872   3.845   2.363   1.570 -0.4901  0.2901  0.5932
  346SOL    HW1  873   3.894   2.400   1.497 -0.0087 -2.2249 -0.4510
  346SOL    HW2  874   3.765   2.328   1.531 -0.7985 -0.0179  1.4758
  347SOL     OW  875   2.402   3.691   3.385 -0.2595 -0.2755  0.1853
  347SOL    HW1  876   2.466   3.645   3.439  0.2198 -0.7882 -0.7998
  347SOL    HW2  877   2.444   3.774   3.363  0.5849 -1.0664 -1.3917
  348SOL     OW  878   1.279   1.505   3.684  0.1049  0.2355  0.2394
  348SOL    HW1  879   1.245   1.584   3.643 -0.7897  0.1841  0.8576
  348SOL    HW2  880   1.268   1.437   3.617 -0.0454  0.4286  0.0662
  349SOL     OW  881   3.092   1.631   3.278  0.6031  0.4101 -0.1273
  349SOL    HW1  882   3.035   1.648   3.353  0.7051  0.4604 -0.0607
  349SOL    HW2  883   3.161   1.575   3.314 -0.4362 -1.2706 -0.6210
  350SOL     OW  884   2.599   3.623   2.309 -0.4608 -0.0219  0.7688
  350SOL    HW1  885   2.680   3.607   2.260 -1.4426 -0.7669 -0.6814
  350SOL    HW2  886   2.589   3.718   2.309 -0.9854 -0.0311 -1.4745
  351SOL     OW  887   3.068   1.971   0.282  0.2989 -0.4345 -0.2900
  351SOL    HW1  888   3.029   1.904   0.338  0.5274 -0.0277  0.3637
  351SOL    HW2  889   2.994   2.009   0.235  0.0634 -0.5409 -0.0053
  352SOL     OW  890   2.833   1.674   4.051 -0.1678  0.5415  0.5346
  352SOL    HW1  891   2.845   1.765   4.022 -2.2777  0.6050 -0.3582
  352SOL    HW2  892   2.738   1.660   4.043  0.1761 -1.8934  0.2080
  353SOL     OW  893   1.301   2.530   3.560  0.1675 -0.4774  0.2856
  353SOL    HW1  894   1.389   2.567   3.565 -0.6018  1.5352 -0.1786
  353SOL    HW2  895   1.315   2.436   3.562  2.2474 -0.2121  1.5861
  354SOL     OW  896   0.542   0.256   3.782 -0.0094  0.1069  0.7618
  354SOL    HW1  897   0.474   0.192   3.801 -1.0632  1.0188  0.1819
  354SOL    HW2  898   0.500   0.341   3.795  0.3144  0.7318 -1.7128
  355SOL     OW  899   1.109   2.593   2.486  0.3073  0.1193 -0.4021
  355SOL    HW1  900   1.039   2.545   2.441  0.3553  1.0929 -1.5604
  355SOL    HW2  901   1.190   2.558   2.449  0.3287  1.5845 -1.8285
  356SOL     OW  902   1.424   3.466   0.396  0.2172 -0.2464  0.5188
  356SOL    HW1  903   1.505   3.497   0.435 -0.2006  0.4463  0.8567
  356SOL    HW2  904   1.452   3.405   0.327  1.0212  0.1327  0.5016
  357SOL     OW  905   2.006   0.290   3.644  0.0427 -0.0385 -0.5508
  357SOL    HW1  906   1.954   0.363   3.611 -1.4097 -0.7348  0.1197
  357SOL    HW2  907   2.089   0.329   3.671 -0.8842  1.4518  0.2342
  358SOL     OW  908   3.898   0.652   0.650 -0.5639  0.3788  0.1761
  358SOL    HW1  909   3.943   0.634   0.733 -1.3621 -1.6898  0.1999
  358SOL    HW2  910   3.960   0.623   0.583  0.5420  3.0418 -0.0901
  359SOL     OW  911   0.633   1.966   2.003 -0.1840 -0.5622  0.2829
  359SOL    HW1  912   0.717   2.001   1.972 -0.4230  0.6415  0.9585
  359SOL    HW2  913   0.639   1.971   2.099 -1.2529  0.0872  0.3238
  360SOL     OW  914   3.112   0.010   0.841  0.2298  0.2709 -0.3142
  360SOL    HW1  915   3.090   0.090   0.792 -0.8526 -1.0955 -2.0853
  360SOL    HW2  916   3.049   0.009   0.913  0.7921  1.4023  0.2355
  361SOL     OW  917   0.475   3.383   1.638 -0.6069 -0.1282  0.0306
  361SOL    HW1  918   0.407   3.343   1.693  0.5490 -0.1381  1.5429
  361SOL    HW2  919   0.526   3.436   1.699  0.1579  0.6446 -1.2466
  362SOL     OW  920   2.107   2.124   1.963  0.5504  0.6528 -0.6225
  362SOL    HW1  921   2.159   2.188   2.011  0.6501  0.1556 -0.0463
  362SOL    HW2  922   2.133   2.039   2.001 -1.3710  0.4516  0.3667
  363SOL     OW  923   0.541   1.630   3.133  0.6893  0.1261  0.7032
  363SOL    HW1  924   0.586   1.714   3.132  0.0293  0.6163  3.4993
  363SOL    HW2  925   0.612   1.565   3.133  1.2013  0.6228 -1.2205
  364SOL     OW  926   0.131   0.265   0.472  0.0415 -0.5933  0.1899
  364SOL    HW1  927   0.175   0.216   0.403  2.0826 -1.2226  1.8214
  364SOL    HW2  928   0.045   0.224   0.480 -0.6639  0.1268 -2.5331
  365SOL     OW  929   1.413   0.904   2.183  0.3534 -0.6008  0.3749
  365SOL    HW1  930   1.500   0.876   2.211  0.8055 -0.9714 -1.2516
  365SOL    HW2  931   1.422   0.917   2.088 -0.9785  0.8584  0.4157
  366SOL     OW  932   2.963   3.455   2.685 -0.6306  0.4717  0.4551
  366SOL    HW1  933   2.976   3.388   2.752 -1.7049 -1.5943 -1.2477
  366SOL    HW2  934   3.044   3.453   2.634 -1.0649 -0.3752 -0.2369
  367SOL     OW  935   3.802   1.916   2.660  0.3757  0.0042 -0.6153
  367SOL    HW1  936   3.842   1.864   2.590  1.5339 -0.4286  0.3369
  367SOL    HW2  937   3.711   1.884   2.664 -0.0692  0.8279 -2.6440
  368SOL     OW  938   4.009   0.033   1.757 -0.3901  0.2243  0.3742
  368SOL    HW1  939   4.051  -0.046   1.791  0.2155  0.6413  0.5231
  368SOL    HW2  940   4.008   0.020   1.662  0.5377  0.4236  0.3225
  369SOL     OW  941   1.705   1.319   2.642 -0.0190 -0.2435 -0.0654
  369SOL    HW1  942   1.652   1.240   2.629  0.2283 -0.5089  0.4713
  369SOL    HW2  943   1.795   1.289   2.629 -0.0046  0.2426 -1.1469
  370SOL     OW  944   2.118   2.735   2.657  0.0487  0.5336 -0.5381
  370SOL    HW1  945   2.199   2.698   2.692  0.5313  0.3336 -1.8212
  370SOL    HW2  946   2.071   2.767   2.735  0.6595 -0.6946  0.3691
  371SOL     OW  947   0.793   3.647   3.542  0.0484 -0.3674 -0.1729
  371SOL    HW1  948   0.882   3.648   3.576 -0.0867 -2.4155  0.3573
  371SOL    HW2  949   0.751   3.723   3.582  1.2895  0.0736  0.3219
  372SOL     OW  950   3.192   0.563   1.769 -0.3590  0.5778  0.2364
  372SOL    HW1  951   3.244   0.536   1.694 -0.3270  1.3285 -0.0250
  372SOL    HW2  952   3.195   0.659   1.767 -3.6588  0.7664 -1.1407
  373SOL     OW  953   3.865   3.414   3.034  0.0431  0.5396 -0.0083
  373SOL    HW1  954   3.827   3.484   2.981 -0.4076 -0.6615 -1.3486
  373SOL    HW2  955   3.918   3.363   2.972  0.5837 -0.1601  0.9850
  374SOL     OW  956   3.253   0.223   0.613  0.0228  0.2326 -0.0648
  374SOL    HW1  957   3.226   0.296   0.558 -0.5377 -0.5235 -0.8208
  374SOL    HW2  958   3.172   0.176   0.632  0.4504 -0.5506 -0.1232
  375SOL     OW  959   3.341   1.502   2.714  0.2779 -0.4359 -0.3024
  375SOL    HW1  960   3.337   1.558   2.636 -1.1414 -2.7657 -2.0372
  375SOL    HW2  961   3.430   1.467   2.713  0.3532 -0.2438 -0.7149
  376SOL     OW  962   3.186   3.204   0.715  0.8231  0.1948  0.3693
  376SOL    HW1  963   3.176   3.244   0.629 -1.5589 -0.9614  0.0135
  376SOL    HW2  964   3.117   3.244   0.768  0.0416 -1.5018  0.7210
  377SOL     OW  965   3.599   3.720   0.566 -0.1446 -0.0695  0.3272
  377SOL    HW1  966   3.579   3.627   0.568 -0.6686  0.0342  0.1357
  377SOL    HW2  967   3.577   3.748   0.477 -2.1037  0.6705  0.9723
  378SOL     OW  968   3.889   2.148   3.905 -0.8125 -0.5524  0.4440
  378SOL    HW1  969   3.818   2.210   3.889 -0.0406  0.4042  0.5429
  378SOL    HW2  970   3.960   2.203   3.940 -0.2017 -1.5512  0.8149
  379SOL     OW  971   0.739   0.642   0.254 -0.1326  0.2413 -0.5419
  379SOL    HW1  972   0.686   0.639   0.333 -1.4039  0.3488 -1.3556
  379SOL    HW2  973   0.705   0.717   0.205 -0.0301 -0.3912 -1.6306
  380SOL     OW  974   1.455   0.077   3.758 -0.3944  0.9109 -0.1384
  380SOL    HW1  975   1.422   0.144   3.698  0.2093  0.0758 -1.4492
  380SOL    HW2  976   1.405  -0.002   3.737 -1.4270  1.0552  1.7050
  381SOL     OW  977   3.727   2.082   2.211  0.2855 -0.0093  0.3642
  381SOL    HW1  978   3.771   1.999   2.191  2.7858  1.7199 -2.0333
  381SOL    HW2  979   3.787   2.127   2.270  0.5134  1.3625 -0.8835
  382SOL     OW  980   3.790   3.556   0.348 -0.2186  0.7220  0.1234
  382SOL    HW1  981   3.737   3.532   0.424  1.7162 -1.2740  0.9766
  382SOL    HW2  982   3.784   3.481   0.289  1.4369  0.5092  0.1677
  383SOL     OW  983   1.797   0.601   4.057  0.0571 -0.1992  0.0181
  383SOL    HW1  984   1.798   0.686   4.102  0.6887 -1.0858  1.7375
  383SOL    HW2  985   1.718   0.558   4.091  0.7501 -1.0363  0.5532
  384SOL     OW  986   2.625   0.321   0.894 -0.0671  0.4445 -0.1939
  384SOL    HW1  987   2.627   0.416   0.881 -0.0913  0.2794 -1.6066
  384SOL    HW2  988   2.566   0.289   0.826  0.3327 -0.6285 -0.0477
  385SOL     OW  989   0.795   1.449   3.022  0.5050  0.1890 -0.3045
  385SOL    HW1  990   0.842   1.531   3.032  1.3117 -0.3426  0.4042
  385SOL    HW2  991   0.831   1.392   3.091  0.7072 -1.0967 -1.4363
  386SOL     OW  992   2.370   0.288   3.967  0.4345  0.1035 -0.1881
  386SOL    HW1  993   2.304   0.334   3.914 -0.4769 -1.6442 -0.6552
  386SOL    HW2  994   2.351   0.195   3.953  2.9164 -0.4648 -0.1907
  387SOL     OW  995   0.820   2.691   0.227  0.3681  0.0383 -0.1848
  387SOL    HW1  996   0.872   2.758   0.271 -1.5472  1.5077  0.0091
  387SOL    HW2  997   0.861   2.608   0.251  2.0146  1.0672  0.6965
  388SOL     OW  998   1.306   0.041   2.618  0.1964  0.2255  0.0559
  388SOL    HW1  999   1.308  -0.054   2.602 -0.9954  0.3576 -0.8226
  388SOL    HW2 1000   1.332   0.079   2.534  0.2081  0.6826  0.2689
  389SOL     OW 1001   3.544   0.031   1.366 -0.3687  0.0908 -0.2624
  389SOL    HW1 1002   3.499   0.108   1.332 -0.3704  0.8709  1.4026
  389SOL    HW2 1003   3.608   0.066   1.428 -0.3771 -1.2447  0.5404
  390SOL     OW 1004   0.361   1.661   4.002 -0.1807 -0.0118 -0.2130
  390SOL    HW1 1005   0.393   1.577   4.036  1.7444 -0.0171 -1.8648
  390SOL    HW2 1006   0.424   1.725   4.035 -0.8698  0.6124 -0.0811
  391SOL     OW 1007   2.114   2.723   2.388 -0.3506  0.3873 -0.0770
  391SOL    HW1 1008   2.036   2.667   2.381 -0.7184  0.7353  1.1051
  391SOL    HW2 1009   2.125   2.738   2.482 -0.0875  2.0564 -0.3431
  392SOL     OW 1010   1.153   1.579   2.138 -0.1952  0.6100 -0.4766
  392SOL    HW1 1011   1.110   1.645   2.084 -0.9100  0.6349  0.1112
  392SOL    HW2 1012   1.103   1.499   2.121 -0.4270  0.6177  0.1371
  393SOL     OW 1013   3.869   3.366   3.575  0.3396 -0.0919  0.1464
  393SOL    HW1 1014   3.872   3.396   3.484 -1.5410 -0.8317 -0.2021
  393SOL    HW2 1015   3.948   3.313   3.585  0.4580 -0.1961 -1.1425
  394SOL     OW 1016   1.033   1.413   3.995  0.0853 -0.6824  0.4330
  394SOL    HW1 1017   0.978   1.450   3.925  0.4119 -2.2603 -0.7209
  394SOL    HW2 1018   1.028   1.477   4.066 -0.9003  0.6019 -0.7375
  395SOL     OW 1019   1.807   0.662   1.618 -0.0289  0.2700  0.1993
  395SOL    HW1 1020   1.820   0.737   1.559 -2.4485  2.9297  2.7439
  395SOL    HW2 1021   1.890   0.614   1.613  1.9947  3.5241 -1.0164
  396SOL     OW 1022   1.042   2.626   3.484  0.1025 -0.4357 -0.0741
  396SOL    HW1 1023   1.012   2.669   3.564  0.2459  1.8829 -1.1843
  396SOL    HW2 1024   1.131   2.597   3.504  1.0028  2.1254 -0.0131
  397SOL     OW 1025   2.146   3.814   1.551  0.4540 -0.5946  0.0088
  397SOL    HW1 1026   2.116   3.723   1.546  0.3692 -0.6943  1.7636
  397SOL    HW2 1027   2.096   3.859   1.483  0.1693 -1.7702 -0.5913
  398SOL     OW 1028   0.679   3.029   1.506  0.5665  0.4292 -0.1059
  398SOL    HW1 1029   0.605   3.069   1.460 -0.8317  0.0346  1.6581
  398SOL    HW2 1030   0.721   2.973   1.441 -1.1369  0.0971 -0.9718
  399SOL     OW 1031   2.703   3.745   1.254  0.1175 -0.2313 -0.2762
  399SOL    HW1 1032   2.747   3.726   1.172  1.6735  0.7452  0.2948
  399SOL    HW2 1033   2.616   3.777   1.227  0.6253  0.1463 -1.5378
  400SOL     OW 1034   0.943   2.934   0.284 -0.6308 -0.4776 -0.4590
  400SOL    HW1 1035   0.939   3.001   0.216  1.1505  0.0036 -0.1482
  400SOL    HW2 1036   0.873   2.956   0.344 -1.2061  0.0272 -1.2934
  401SOL     OW 1037   3.646   2.217   3.740  0.0923  0.6700 -0.8810
  401SOL    HW1 1038   3.704   2.184   3.672 -0.9644  0.9637 -1.9722
  401SOL    HW2 1039   3.564   2.169   3.725 -0.8015  2.2298 -1.1583
  402SOL     OW 1040   0.625   0.694   1.824  0.4216  0.1888  0.2334
  402SOL    HW1 1041   0.695   0.743   1.867 -0.5911  1.2490  0.7238
  402SOL    HW2 1042   0.618   0.613   1.874  0.3288  0.7134  1.0878
  403SOL     OW 1043   0.737   3.878   3.670 -0.3802 -0.0441 -0.0454
  403SOL    HW1 1044   0.701   3.946   3.612 -2.2170  0.6941  1.8488
  403SOL    HW2 1045   0.812   3.920   3.711 -0.3767  0.1800 -0.2743
  404SOL     OW 1046   1.666   3.383   2.102  0.2140 -0.2825  0.0668
  404SOL    HW1 1047   1.590   3.385   2.160  1.6419 -0.9097  2.0261
  404SOL    HW2 1048   1.737   3.422   2.153  0.9936  1.4512 -2.1491
  405SOL     OW 1049   3.203   1.540   1.424 -0.2308  0.7744 -0.1772
  405SOL    HW1 1050   3.222   1.447   1.414 -1.3645  0.1779  2.3080
  405SOL    HW2 1051   3.186   1.571   1.336  1.0539 -1.1463 -1.1800
  406SOL     OW 1052   1.732   3.624   1.954  0.3006  0.0777  0.1696
  406SOL    HW1 1053   1.707   3.540   1.992 -1.8982  1.1416  1.2179
  406SOL    HW2 1054   1.789   3.664   2.019 -0.6385  0.4148  0.7998
  407SOL     OW 1055   2.032   1.627   3.617 -0.1342  0.2556  0.0104
  407SOL    HW1 1056   2.021   1.677   3.698 -1.9299  0.6491 -0.4404
  407SOL    HW2 1057   2.075   1.688   3.557 -1.5727  1.0500 -0.2732
  408SOL     OW 1058   3.905   1.502   0.224  0.4502 -0.3630 -0.5810
  408SOL    HW1 1059   3.884   1.412   0.198  1.9245 -1.1626  0.8691
  408SOL    HW2 1060   3.865   1.512   0.310 -0.1215  0.5770 -0.9368
  409SOL     OW 1061   2.755   3.616   1.016  0.4070 -0.7502  0.7423
  409SOL    HW1 1062   2.721   3.530   1.039  1.5104 -1.2160  0.6636
  409SOL    HW2 1063   2.844   3.600   0.987  0.3037  0.2955 -0.2271
  410SOL     OW 1064   1.371   1.599   2.356  0.6525 -0.5097 -0.4925
  410SOL    HW1 1065   1.419   1.518   2.344 -1.2721 -1.7046 -0.5852
  410SOL    HW2 1066   1.318   1.608   2.276  0.7185  0.7584 -0.4233
  411SOL     OW 1067   3.680   1.350   0.540 -0.2804  0.1200 -0.4617
  411SOL    HW1 1068   3.711   1.355   0.630 -0.8624  2.9045 -0.3108
  411SOL    HW2 1069   3.742   1.292   0.496  0.8736 -0.1268  1.3895
  412SOL     OW 1070   2.608   2.267   1.138  0.1469  0.7961  0.2498
  412SOL    HW1 1071   2.599   2.284   1.232  0.1170  1.3397  0.1506
  412SOL    HW2 1072   2.672   2.331   1.108 -1.0474  1.7251 -0.4082
  413SOL     OW 1073   1.130   1.703   3.543 -0.2408  0.7846  0.1485
  413SOL    HW1 1074   1.180   1.784   3.559 -0.0941  0.2007  3.5285
  413SOL    HW2 1075   1.047   1.717   3.590 -0.0381 -1.1284  1.1691
  414SOL     OW 1076   1.700   2.910   1.470  0.2717 -0.2036 -0.1443
  414SOL    HW1 1077   1.790   2.940   1.457  0.5427 -1.7988 -2.7292
  414SOL    HW2 1078   1.709   2.832   1.525  0.4695 -0.3409 -0.3701
  415SOL     OW 1079   1.998   1.946   0.738 -0.1776 -0.1631  0.2310
  415SOL    HW1 1080   1.937   2.014   0.765  1.0749  1.8769 -1.7583
  415SOL    HW2 1081   2.057   1.935   0.812  1.1844  2.8781 -0.2869
  416SOL     OW 1082   3.862   0.478   1.541  0.0252 -0.3999  0.2129
  416SOL    HW1 1083   3.911   0.438   1.469 -0.3860  1.6058 -1.2702
  416SOL    HW2 1084   3.929   0.521   1.595  0.1314  0.7114 -0.7507
  417SOL     OW 1085   3.967   1.221   2.017 -0.3503 -0.1904 -0.1981
  417SOL    HW1 1086   3.970   1.169   2.098  0.0665  0.6241  0.3275
  417SOL    HW2 1087   3.957   1.156   1.947  0.0325 -0.9665  0.4447
  418SOL     OW 1088   0.720   0.113   0.127  0.2969 -0.9040  0.0854
  418SOL    HW1 1089   0.795   0.110   0.067 -0.3005  0.0883 -0.7381
  418SOL    HW2 1090   0.645   0.088   0.073 -0.3025  0.3597  0.2966
  419SOL     OW 1091   0.306   0.001   0.586 -0.0858  0.1680  0.6988
  419SOL    HW1 1092   0.347  -0.084   0.571  0.2485  0.2271  1.4403
  419SOL    HW2 1093   0.228   0.000   0.532 -0.2683 -0.7482  0.9656
  420SOL     OW 1094   3.943   0.440   2.052 -0.3719 -0.2942 -0.7298
  420SOL    HW1 1095   3.960   0.395   1.969 -1.3822  0.3631 -1.3177
  420SOL    HW2 1096   3.872   0.501   2.031  1.5672  2.3077 -0.2161
  421SOL     OW 1097   3.478   2.687   0.167 -0.4116 -0.0999  0.0344
  421SOL    HW1 1098   3.512   2.611   0.215 -0.5426 -0.9065 -1.1243
  421SOL    HW2 1099   3.383   2.673   0.165 -0.7311  1.3602  1.9207
  422SOL     OW 1100   1.912   2.444   0.191 -0.5513  0.4876  0.3276
  422SOL    HW1 1101   1.992   2.439   0.138 -0.1396  0.6425  0.9292
  422SOL    HW2 1102   1.863   2.365   0.168 -0.3313  0.5047 -0.2149
  423SOL     OW 1103   3.525   1.074   1.276  0.4176  0.1769  0.0824
  423SOL    HW1 1104   3.542   1.099   1.367 -0.8887  0.8880  0.1600
  423SOL    HW2 1105   3.594   1.012   1.255  0.0521 -0.9606  1.9690
  424SOL     OW 1106   1.483   2.521   3.194  0.0381 -0.4302 -0.1747
  424SOL    HW1 1107   1.512   2.607   3.164 -1.1812 -0.1521 -0.6093
  424SOL    HW2 1108   1.526   2.459   3.135  0.3030 -0.0809 -0.3543
  425SOL     OW 1109   1.465   1.167   3.288  0.5805 -0.2212 -0.0300
  425SOL    HW1 1110   1.494   1.160   3.197  0.7261 -0.7962  0.0601
  425SOL    HW2 1111   1.461   1.262   3.304  0.2485 -0.1102 -0.7276
  426SOL     OW 1112   0.062   3.509   1.084 -0.4717 -0.3395  0.2085
  426SOL    HW1 1113   0.021   3.552   1.009 -0.6730  0.3360  0.7069
  426SOL    HW2 1114   0.156   3.513   1.066 -0.5755 -1.1975 -0.5799
  427SOL     OW 1115   1.607   0.225   1.170  0.1801 -0.7136  0.0446
  427SOL    HW1 1116   1.515   0.221   1.144  0.2017 -1.3792  0.0720
  427SOL    HW2 1117   1.606   0.270   1.255 -0.1497 -0.9847  0.1855
  428SOL     OW 1118   3.436   2.686   1.377 -0.3866 -0.3983 -0.3658
  428SOL    HW1 1119   3.489   2.648   1.448 -0.2889 -0.7988 -0.6478
  428SOL    HW2 1120   3.367   2.622   1.363 -1.0722  0.2141  0.1323
  429SOL     OW 1121   2.195   3.306   1.093  0.2758  0.0596 -0.0535
  429SOL    HW1 1122   2.219   3.325   1.184 -1.1723  1.5013  0.0666
  429SOL    HW2 1123   2.187   3.391   1.052 -0.6591 -0.5176 -1.1127
  430SOL     OW 1124   2.825   0.527   0.373 -0.0482  0.1254  0.4680
  430SOL    HW1 1125   2.852   0.490   0.289  1.8032  2.2643  0.0162
  430SOL    HW2 1126   2.751   0.584   0.351  0.2847  0.5016  0.3064
  431SOL     OW 1127   0.621   1.768   1.538 -0.6548  0.1171 -0.2004
  431SOL    HW1 1128   0.651   1.793   1.451  1.2165  1.9949  0.8780
  431SOL    HW2 1129   0.537   1.812   1.549 -1.7365 -1.4650 -1.5838
  432SOL     OW 1130   2.786   2.042   0.856  0.4176 -0.2483  0.2770
  432SOL    HW1 1131   2.821   2.060   0.768 -0.5185  2.9548  0.4390
  432SOL    HW2 1132   2.700   2.082   0.856  1.6978  3.0889  3.6268
  433SOL     OW 1133   3.718   3.996   0.535 -0.5055 -0.0368 -0.0378
  433SOL    HW1 1134   3.727   4.056   0.609 -1.8624  1.0315 -0.6873
  433SOL    HW2 1135   3.679   3.917   0.573 -0.6275  0.2723  0.4914
  434SOL     OW 1136   1.135   1.655   0.340 -0.3622 -0.6553  0.5838
  434SOL    HW1 1137   1.081   1.594   0.389 -0.4636 -0.3155  0.9008
  434SOL    HW2 1138   1.225   1.635   0.367 -0.1814 -2.1802 -1.0080
  435SOL     OW 1139   4.045   1.457   3.700 -0.0255 -0.2631 -0.2694
  435SOL    HW1 1140   4.076   1.508   3.625 -1.3467  2.0919  0.7142
  435SOL    HW2 1141   4.072   1.506   3.777 -0.9383 -1.3128  0.7631
  436SOL     OW 1142   2.373   2.001   3.333 -0.6846 -0.1710  0.8500
  436SOL    HW1 1143   2.314   1.992   3.259  0.1875  0.8208  0.0012
  436SOL    HW2 1144   2.415   1.915   3.342 -0.2215 -0.0740 -0.3122
  437SOL     OW 1145   2.062   3.558   1.608  0.4582 -0.5109 -0.4351
  437SOL    HW1 1146   2.030   3.468   1.599 -0.3428 -0.3035  0.1783
  437SOL    HW2 1147   1.994   3.602   1.659  1.6030  0.0414  0.6676
  438SOL     OW 1148   0.540   3.501   1.182 -0.6419 -0.2479 -0.1135
  438SOL    HW1 1149   0.571   3.487   1.272 -3.1671  2.8634  1.5170
  438SOL    HW2 1150   0.557   3.594   1.166 -1.1702 -0.5071 -2.4937
  439SOL     OW 1151   0.636   1.283   3.686  0.2749  0.5163  0.1582
  439SOL    HW1 1152   0.559   1.338   3.699 -0.1239  0.5239 -1.8734
  439SOL    HW2 1153   0.607   1.195   3.709  0.0710  0.7156  0.6770
  440SOL     OW 1154   1.966   3.058   3.927 -0.8012 -0.6514  0.0617
  440SOL    HW1 1155   2.021   2.979   3.935  0.5353  0.2862  0.4762
  440SOL    HW2 1156   2.008   3.122   3.984 -2.8469 -0.1413  1.0565
  441SOL     OW 1157   1.654   2.305   0.720  0.2173 -0.0883  0.2755
  441SOL    HW1 1158   1.560   2.324   0.711 -0.0082 -1.0649  0.4824
  441SOL    HW2 1159   1.697   2.367   0.661 -0.5505  0.3889  0.1995
  442SOL     OW 1160   1.925   1.341   1.300 -0.8298 -0.1494 -0.1136
  442SOL    HW1 1161   1.947   1.253   1.331  0.8645  0.0294 -0.7091
  442SOL    HW2 1162   1.892   1.386   1.378  0.7846 -0.5424  0.8521
  443SOL     OW 1163   3.813   2.701   3.884  0.0124  0.3158 -0.1414
  443SOL    HW1 1164   3.832   2.794   3.891  0.8220  0.1622 -0.1668
  443SOL    HW2 1165   3.846   2.676   3.798  1.6339 -0.3877  0.6465
  444SOL     OW 1166   1.613   2.843   3.351  0.1295  0.2369 -0.3898
  444SOL    HW1 1167   1.703   2.815   3.336  0.7507  1.4315  0.8670
  444SOL    HW2 1168   1.585   2.880   3.267  0.9007  0.0931 -0.7172
  445SOL     OW 1169   2.337   3.860   0.796 -0.1106 -0.4219 -0.1676
  445SOL    HW1 1170   2.292   3.821   0.872 -1.0120  1.1128  0.1474
  445SOL    HW2 1171   2.401   3.920   0.835 -0.0773 -0.1578 -0.6249
  446SOL     OW 1172   2.621   3.737   3.703  0.2203 -0.1308 -0.0198
  446SOL    HW1 1173   2.622   3.744   3.799 -2.2068 -1.0174  0.1376
  446SOL    HW2 1174   2.623   3.828   3.673  1.3067  0.1520  0.8444
  447SOL     OW 1175   3.688   0.429   0.815 -0.1519 -0.0685 -0.6836
  447SOL    HW1 1176   3.627   0.431   0.741 -1.0861 -2.8219 -0.1117
  447SOL    HW2 1177   3.729   0.342   0.810 -1.2127 -0.9194  2.6955
  448SOL     OW 1178   0.623   1.937   2.517  0.0245 -0.0066  0.6739
  448SOL    HW1 1179   0.656   2.008   2.572 -2.7008  1.4203  0.6511
  448SOL    HW2 1180   0.655   1.956   2.429 -1.1405  1.6128  0.5515
  449SOL     OW 1181   0.541   2.340   0.380  0.1687 -0.9994 -0.2546
  449SOL    HW1 1182   0.617   2.317   0.326  0.1889 -0.0512 -0.6407
  449SOL    HW2 1183   0.478   2.377   0.318  0.3821  0.5683  0.4141
  450SOL     OW 1184   2.870   3.784   0.123  0.1052  0.1178  0.0130
  450SOL    HW1 1185   2.783   3.782   0.164 -0.9137  1.1220 -1.9505
  450SOL    HW2 1186   2.927   3.738   0.185 -1.3515  1.3556  2.4191
  451SOL     OW 1187   1.430   3.850   0.402 -0.0209  0.2755  0.5424
  451SOL    HW1 1188   1.371   3.802   0.345 -0.2943 -0.3000  1.2902
  451SOL    HW2 1189   1.485   3.902   0.343 -0.5308 -0.0365 -0.2104
  452SOL     OW 1190   3.914   3.960   0.871 -0.8427 -0.4085  0.1817
  452SOL    HW1 1191   3.947   4.016   0.941 -0.1164 -0.3199 -0.2150
  452SOL    HW2 1192   3.873   4.020   0.809  1.6671 -0.0061 -1.2318
  453SOL     OW 1193   1.596   0.701   2.897 -0.0691 -0.1290  0.1256
  453SOL    HW1 1194   1.622   0.620   2.855  1.8328  0.6238 -0.2705
  453SOL    HW2 1195   1.519   0.730   2.848 -1.1560 -1.9639  0.6730
  454SOL     OW 1196   1.487   1.743   3.393 -0.6166  0.2502  0.3122
  454SOL    HW1 1197   1.445   1.829   3.401 -0.9965  0.0700  0.2712
  454SOL    HW2 1198   1.484   1.724   3.299 -1.1382 -0.1030  0.3942
  455SOL     OW 1199   1.928   3.853   0.711 -0.2979 -0.1910  0.1396
  455SOL    HW1 1200   1.999   3.831   0.651 -1.2975  0.8329 -1.4966
  455SOL    HW2 1201   1.870   3.777   0.709 -1.3234  0.5659 -1.7950
  456SOL     OW 1202   1.561   3.409   3.559  0.0558  0.6616 -0.7350
  456SOL    HW1 1203   1.604   3.494   3.558 -0.8999  1.3680  2.8554
  456SOL    HW2 1204   1.615   3.355   3.616  0.2918 -1.0165 -2.4450
  457SOL     OW 1205   3.972   1.288   3.100  0.4782 -0.1160  0.3741
  457SOL    HW1 1206   3.925   1.329   3.028  0.7785 -0.2873  0.0818
  457SOL    HW2 1207   4.054   1.339   3.107  0.3879 -0.0075  0.6872
  458SOL     OW 1208   0.130   3.785   1.189 -0.1863  0.6009 -0.0432
  458SOL    HW1 1209   0.187   3.823   1.121  0.8424  2.2812  1.6638
  458SOL    HW2 1210   0.076   3.722   1.142  1.7715  0.3197 -2.1023
  459SOL     OW 1211   1.901   0.828   0.170  0.3077  0.5734 -0.3374
  459SOL    HW1 1212   1.977   0.869   0.129  1.1208 -1.2478 -0.7656
  459SOL    HW2 1213   1.840   0.900   0.185  1.7373  1.9490 -0.8124
  460SOL     OW 1214   0.037   1.080   2.394 -0.1270  0.1224  0.2473
  460SOL    HW1 1215   0.065   1.017   2.327  1.3697  1.1739 -0.1714
  460SOL    HW2 1216   0.090   1.059   2.471 -2.9129 -2.0888  1.7602
  461SOL     OW 1217   3.603   3.775   3.830  0.0286 -0.0954 -0.0100
  461SOL    HW1 1218   3.556   3.696   3.804  2.5764 -1.4075 -1.0896
  461SOL    HW2 1219   3.564   3.845   3.777 -0.7067 -1.0949 -0.8344
  462SOL     OW 1220   0.795   2.898   3.894  0.3215 -0.5514 -0.1799
  462SOL    HW1 1221   0.739   2.852   3.956  0.9618  0.3416  1.0991
  462SOL    HW2 1222   0.867   2.933   3.947 -0.1199  1.8896 -1.0810
  463SOL     OW 1223   3.590   0.100   0.349 -0.1997 -0.1740 -0.1345
  463SOL    HW1 1224   3.583   0.192   0.374 -0.3031 -0.0637 -0.5705
  463SOL    HW2 1225   3.670   0.069   0.393  1.3381  0.8021 -2.0984
  464SOL     OW 1226   2.990   2.701   0.382  0.6708 -0.2521  0.0697
  464SOL    HW1 1227   2.904   2.684   0.342  0.9039 -1.6409  0.1098
  464SOL    HW2 1228   2.971   2.709   0.475  0.5410 -0.2731  0.0464
  465SOL     OW 1229   3.088   0.333   0.992 -0.3037 -0.3526 -0.3102
  465SOL    HW1 1230   3.033   0.401   0.952  2.8241  3.7440  1.6696
  465SOL    HW2 1231   3.036   0.300   1.066 -1.0362  1.7223  0.1489
  466SOL     OW 1232   2.978   2.466   1.726 -0.0033  0.1220  0.3334
  466SOL    HW1 1233   2.974   2.374   1.700  0.2550  0.0271  0.6328
  466SOL    HW2 1234   2.887   2.488   1.747  0.2982 -0.8565  3.0005
  467SOL     OW 1235   4.064   0.409   3.053  0.4396 -0.4723 -0.0999
  467SOL    HW1 1236   4.036   0.387   2.964  0.8708 -1.2553 -0.0541
  467SOL    HW2 1237   4.139   0.467   3.041  0.2507 -0.3064 -0.2400
  468SOL     OW 1238   3.585   3.223   3.059 -0.1827 -0.1160  0.3156
  468SOL    HW1 1239   3.604   3.311   3.026 -1.2911 -0.0447 -0.1694
  468SOL    HW2 1240   3.661   3.201   3.112  0.1189  1.1350  0.4375
  469SOL     OW 1241   2.959   4.055   4.044  0.5473  0.1826 -0.5609
  469SOL    HW1 1242   3.053   4.043   4.029  0.1809 -1.8023 -1.5506
  469SOL    HW2 1243   2.937   3.992   4.113 -0.4720 -1.1871 -2.1171
  470SOL     OW 1244   1.127   0.916   2.200 -0.5127  0.0645  0.0443
  470SOL    HW1 1245   1.219   0.943   2.195 -0.6494  0.5667  0.1093
  470SOL    HW2 1246   1.124   0.831   2.157 -0.2991  0.7657 -1.4091
  471SOL     OW 1247   1.749   3.526   4.060 -0.2923  0.2008 -0.2692
  471SOL    HW1 1248   1.679   3.556   4.002  0.2570 -0.6477 -1.4061
  471SOL    HW2 1249   1.825   3.579   4.035 -0.2640  0.4352  0.2511
  472SOL     OW 1250   0.944   0.589   2.317  0.8298  0.1596  0.3201
  472SOL    HW1 1251   0.863   0.638   2.331  0.0695 -1.1008  0.4810
  472SOL    HW2 1252   1.005   0.624   2.382 -0.7332 -1.3545  2.7638
  473SOL     OW 1253   2.414   1.854   0.357  0.3978 -0.3326  0.0356
  473SOL    HW1 1254   2.477   1.880   0.425 -0.1086 -2.7521  1.5703
  473SOL    HW2 1255   2.332   1.894   0.385  0.4998 -0.1427  0.0619
  474SOL     OW 1256   0.673   0.719   0.531  0.1278  0.1405  0.1370
  474SOL    HW1 1257   0.707   0.666   0.604  0.5766 -0.7622 -0.7063
  474SOL    HW2 1258   0.716   0.804   0.542  2.2527 -0.7853 -0.5501
  475SOL     OW 1259   3.361   3.964   0.772 -0.1348  0.5283  0.3599
  475SOL    HW1 1260   3.371   3.959   0.677 -0.8511 -2.5434  0.3492
  475SOL    HW2 1261   3.279   4.012   0.785 -0.2916  0.5377 -0.5956
  476SOL     OW 1262   1.733   2.367   1.426 -0.6786  0.2789  0.1345
  476SOL    HW1 1263   1.685   2.389   1.506 -1.4266 -2.4699  0.5397
  476SOL    HW2 1264   1.805   2.312   1.457 -0.5265 -0.1872 -1.0149
  477SOL     OW 1265   2.790   2.079   3.503  0.2229  0.6966  0.2845
  477SOL    HW1 1266   2.825   2.016   3.440 -1.1994  0.7844 -0.6623
  477SOL    HW2 1267   2.758   2.025   3.576  0.6987  0.4867  0.3393
  478SOL     OW 1268   2.960   2.709   3.824  0.0391 -0.5669  0.0335
  478SOL    HW1 1269   2.995   2.797   3.807 -0.5803 -0.3936 -0.3609
  478SOL    HW2 1270   3.036   2.651   3.815  0.2833 -0.1635 -0.5229
  479SOL     OW 1271   3.336   0.286   0.899  0.2600 -0.2799  0.0707
  479SOL    HW1 1272   3.327   0.277   0.804  2.8245  0.3029 -0.2837
  479SOL    HW2 1273   3.246   0.296   0.930 -0.7296 -1.6096 -2.1467
  480SOL     OW 1274   2.278   1.822   4.006 -0.5215  0.0844  0.0146
  480SOL    HW1 1275   2.285   1.772   4.088  0.7243  2.2717  1.3468
  480SOL    HW2 1276   2.234   1.903   4.032  0.3873  1.0655 -1.3640
  481SOL     OW 1277   2.767   0.810   0.600 -0.1292 -0.3776  0.5184
  481SOL    HW1 1278   2.840   0.841   0.547 -0.1331  0.6915  1.1076
  481SOL    HW2 1279   2.706   0.773   0.537 -0.4734  1.5448 -0.3516
  482SOL     OW 1280   0.390   2.745   0.082 -0.1010  0.0761  0.1923
  482SOL    HW1 1281   0.398   2.650   0.089 -1.8810 -0.1048  0.3369
  482SOL    HW2 1282   0.301   2.759   0.049  0.3099  1.6851 -0.3340
  483SOL     OW 1283   1.438   3.112   1.176 -0.2831 -0.4278  0.0278
  483SOL    HW1 1284   1.513   3.149   1.130  0.9494 -2.6419  0.1338
  483SOL    HW2 1285   1.433   3.163   1.257 -0.7821  1.6736 -1.2294
  484SOL     OW 1286   0.007   0.902   2.055  0.1048 -0.5434  0.0814
  484SOL    HW1 1287   0.055   0.886   2.136  0.8868  1.1430 -0.0060
  484SOL    HW2 1288   0.021   0.822   2.004 -0.1230 -1.4985  1.4518
  485SOL     OW 1289   3.747   2.502   1.050  0.4451  0.0725 -0.0209
  485SOL    HW1 1290   3.665   2.546   1.070  0.4395 -0.7632  1.9604
  485SOL    HW2 1291   3.807   2.573   1.027 -0.8729  0.6762 -1.8835
  486SOL     OW 1292   1.153   3.472   1.503 -0.2982  0.4690  0.2070
  486SOL    HW1 1293   1.202   3.396   1.535 -1.2616  0.3817  1.5214
  486SOL    HW2 1294   1.170   3.473   1.408  0.3135 -0.9463  0.2809
  487SOL     OW 1295   2.448   2.903   2.539  0.0799  0.2807  0.0920
  487SOL    HW1 1296   2.485   2.821   2.573 -1.1965  0.4880  2.1539
  487SOL    HW2 1297   2.404   2.878   2.458  0.8747 -0.8101 -0.0232
  488SOL     OW 1298   2.049   0.017   1.736 -0.4609 -0.4500 -0.7915
  488SOL    HW1 1299   2.036  -0.068   1.777 -1.7774 -0.3746 -1.0855
  488SOL    HW2 1300   2.005   0.079   1.794  0.4077  0.0338 -0.6269
  489SOL     OW 1301   2.545   3.641   1.631  0.5646 -0.2643  0.2914
  489SOL    HW1 1302   2.551   3.568   1.692 -0.7724  0.5712  1.5035
  489SOL    HW2 1303   2.454   3.639   1.600  0.9206 -0.0041 -0.8122
  490SOL     OW 1304   2.828   1.931   2.771 -0.3387 -0.7457 -0.5574
  490SOL    HW1 1305   2.799   1.840   2.758 -1.9957 -0.1475 -1.3250
  490SOL    HW2 1306   2.762   1.970   2.828 -1.2557  0.6994 -2.4613
  491SOL     OW 1307   3.798   2.689   1.435 -0.5523  0.1228  0.6189
  491SOL    HW1 1308   3.724   2.643   1.473 -1.8507  0.7369 -1.0059
  491SOL    HW2 1309   3.842   2.623   1.382 -1.3509  0.2804 -0.2739
  492SOL     OW 1310   3.455   2.624   2.591  0.6462 -0.5899 -0.6143
  492SOL    HW1 1311   3.515   2.634   2.665  2.0138  0.2393 -1.7906
  492SOL    HW2 1312   3.466   2.533   2.564  1.8782 -0.2752 -1.2187
  493SOL     OW 1313   3.364   1.318   3.771 -0.5176 -0.1595 -0.6475
  493SOL    HW1 1314   3.420   1.364   3.834 -1.5512 -1.0927  1.0124
  493SOL    HW2 1315   3.335   1.386   3.711 -0.3238  0.9791  0.4977
  494SOL     OW 1316   1.802   2.692   0.287  0.4197  0.3624 -0.1510
  494SOL    HW1 1317   1.821   2.598   0.286  0.6105  0.4055 -0.7327
  494SOL    HW2 1318   1.849   2.727   0.212 -1.0401  0.6493 -0.9776
  495SOL     OW 1319   0.122   1.179   3.800  0.1793  0.0679  0.4416
  495SOL    HW1 1320   0.048   1.241   3.794 -2.5928 -3.0401 -0.7716
  495SOL    HW2 1321   0.138   1.171   3.894 -0.7629  1.1141  0.7224
  496SOL     OW 1322   3.402   2.939   3.712 -0.3024 -0.7374 -0.1184
  496SOL    HW1 1323   3.391   2.952   3.618 -0.3482 -1.4611 -0.2162
  496SOL    HW2 1324   3.434   2.849   3.720 -0.5201 -0.7576  0.5717
  497SOL     OW 1325   3.650   2.077   1.497  0.3088  0.1156 -0.5752
  497SOL    HW1 1326   3.578   2.108   1.442 -0.3447  0.1770  0.3060
  497SOL    HW2 1327   3.610   2.059   1.582  1.2544 -0.2582 -0.1960
  498SOL     OW 1328   2.300   2.451   3.869 -0.1598 -0.1146 -0.1687
  498SOL    HW1 1329   2.298   2.362   3.835 -3.3138 -0.0227 -0.5808
  498SOL    HW2 1330   2.292   2.507   3.791 -0.4574  0.4207  0.2356
  499SOL     OW 1331   2.274   0.124   1.611  0.0082  0.5210 -0.2564
  499SOL    HW1 1332   2.255   0.217   1.626  0.0736  0.5507 -0.3607
  499SOL    HW2 1333   2.196   0.079   1.644 -0.1280  0.6268 -0.4327
  500SOL     OW 1334   3.502   1.499   0.418  0.4203  0.4338 -0.0436
  500SOL    HW1 1335   3.536   1.589   0.420  2.7896 -0.3544 -0.6154
  500SOL    HW2 1336   3.568   1.448   0.466 -0.3681 -1.1311 -0.5597
  501SOL     OW 1337   0.268   0.815   0.903  0.2749 -0.1247 -0.5335
  501SOL    HW1 1338   0.199   0.853   0.848 -0.3980 -0.5443 -0.0038
  501SOL    HW2 1339   0.330   0.778   0.841 -1.3555 -2.1786 -1.0612
  502SOL     OW 1340   0.651   1.163   3.367  0.0068 -0.1924 -0.1408
  502SOL    HW1 1341   0.666   1.211   3.448  0.0043  0.2665 -0.4128
  502SOL    HW2 1342   0.717   1.093   3.368  1.0393  0.7597 -0.4851
  503SOL     OW 1343   3.024   1.654   1.603 -0.0281  0.6765 -0.3676
  503SOL    HW1 1344   3.089   1.599   1.558  0.1577  0.7616 -0.2017
  503SOL    HW2 1345   2.994   1.715   1.535 -0.8127 -0.1253 -0.7740
  504SOL     OW 1346   2.778   3.565   1.461 -0.3254  0.5118 -0.0749
  504SOL    HW1 1347   2.703   3.569   1.520 -0.2533  0.4165  0.0264
  504SOL    HW2 1348   2.741   3.559   1.373 -0.4583 -1.0120  0.0596
  505SOL     OW 1349   2.909   1.585   0.220 -0.1927 -0.7027  0.1311
  505SOL    HW1 1350   2.830   1.543   0.255 -1.6071  0.1694 -1.8173
  505SOL    HW2 1351   2.881   1.623   0.136  2.4077 -0.6727 -0.8172
  506SOL     OW 1352   0.335   4.040   3.104  0.1552  0.1498  0.3511
  506SOL    HW1 1353   0.243   4.015   3.095  0.1891  0.6004 -1.6727
  506SOL    HW2 1354   0.332   4.127   3.145 -0.3648  0.2804 -0.0242
  507SOL     OW 1355   1.276   2.416   2.946  0.5318  0.2463 -0.5948
  507SOL    HW1 1356   1.295   2.435   2.854 -0.5226  1.4238 -0.5828
  507SOL    HW2 1357   1.312   2.490   2.994  2.4655 -1.0866  0.1409
  508SOL     OW 1358   3.420   2.496   2.138  0.0388  0.3914  0.1217
  508SOL    HW1 1359   3.449   2.528   2.053  0.3358  0.1052  0.1109
  508SOL    HW2 1360   3.386   2.409   2.121 -0.1239  0.4285  0.2572
  509SOL     OW 1361   3.532   2.345   3.304  0.1645 -0.2155  0.0538
  509SOL    HW1 1362   3.512   2.268   3.252 -2.1314  0.3711 -0.0448
  509SOL    HW2 1363   3.627   2.344   3.315  0.2252 -2.7914 -0.3000
  510SOL     OW 1364   1.902   3.085   3.281 -0.3489  0.3136  0.9720
  510SOL    HW1 1365   1.930   3.133   3.359 -1.4679  2.1210  0.3195
  510SOL    HW2 1366   1.866   3.152   3.223  2.9704 -0.4856 -2.3922
  511SOL     OW 1367   3.781   1.290   1.707 -0.6048 -0.5930 -0.2697
  511SOL    HW1 1368   3.792   1.381   1.735 -3.1510  0.3722 -2.0347
  511SOL    HW2 1369   3.724   1.251   1.773 -0.2738 -0.6426 -0.0112
  512SOL     OW 1370   2.103   1.126   3.898 -0.4020 -0.2098  0.1609
  512SOL    HW1 1371   2.113   1.221   3.895 -1.6831 -0.0087  1.3312
  512SOL    HW2 1372   2.010   1.112   3.916 -0.9074 -1.7614 -2.9514
  513SOL     OW 1373   0.960   2.966   1.767  0.1004 -0.2483 -0.5610
  513SOL    HW1 1374   0.918   3.052   1.777 -0.6301 -0.6317 -0.3279
  513SOL    HW2 1375   0.905   2.919   1.706  0.4897 -0.5704 -0.6682
  514SOL     OW 1376   1.621   3.859   2.050  0.3515  0.2257  0.3974
  514SOL    HW1 1377   1.640   3.800   1.977  1.9578  0.9787  0.1638
  514SOL    HW2 1378   1.542   3.905   2.022 -0.4339 -1.1800  0.2137
  515SOL     OW 1379   2.151   1.245   0.820  0.3501  0.0958 -0.6659
  515SOL    HW1 1380   2.089   1.172   0.815  0.6748 -0.2220 -0.1496
  515SOL    HW2 1381   2.171   1.253   0.913 -0.5074  1.5525 -0.5772
  516SOL     OW 1382   1.341   3.661   4.036 -0.6997  0.3298 -0.5184
  516SOL    HW1 1383   1.278   3.671   3.964 -1.1425  1.3539 -0.0087
  516SOL    HW2 1384   1.412   3.721   4.014 -0.7996  0.5886 -0.1478
  517SOL     OW 1385   1.332   3.145   3.522  0.5938  0.2331  0.2309
  517SOL    HW1 1386   1.416   3.183   3.548  0.7673 -1.9484  3.5710
  517SOL    HW2 1387   1.274   3.161   3.597 -1.0446 -0.8538 -0.7346
  518SOL     OW 1388   3.107   2.507   3.270 -0.3993 -0.5243  0.4654
  518SOL    HW1 1389   3.041   2.493   3.203 -1.1325  0.0852  1.0395
  518SOL    HW2 1390   3.120   2.602   3.271  1.0990 -0.6967 -0.2085
  519SOL     OW 1391   0.634   3.873   2.210  0.1289 -0.4854 -0.4393
  519SOL    HW1 1392   0.618   3.869   2.116 -0.5652  0.2242 -0.3599
  519SOL    HW2 1393   0.717   3.921   2.217  0.0542 -0.3163 -0.6821
  520SOL     OW 1394   1.713   0.563   0.972 -0.1030  0.6174 -0.4423
  520SOL    HW1 1395   1.716   0.658   0.962  1.9963  0.6534  0.1864
  520SOL    HW2 1396   1.766   0.529   0.900  1.1578  0.0761  0.7004
  521SOL     OW 1397   3.942   0.131   0.423 -0.0631  0.2505 -0.2636
  521SOL    HW1 1398   3.909   0.117   0.512 -1.3938  1.7056 -0.4831
  521SOL    HW2 1399   3.969   0.044   0.394  1.7678 -0.0533  2.0311
  522SOL     OW 1400   0.245   2.399   3.981  0.2898  0.0087 -0.2348
  522SOL    HW1 1401   0.274   2.308   3.978  0.4940  0.1040 -1.3923
  522SOL    HW2 1402   0.169   2.402   3.923  2.1635  1.1964 -2.8391
  523SOL     OW 1403   1.963   1.055   2.512  0.4628 -0.1787 -0.4257
  523SOL    HW1 1404   1.985   1.115   2.584 -3.4071  1.7055 -0.5463
  523SOL    HW2 1405   1.896   0.998   2.550 -0.6192 -0.0713 -2.0986
  524SOL     OW 1406   1.863   3.259   0.922  0.0616  0.4181  0.3186
  524SOL    HW1 1407   1.874   3.341   0.873  2.8329  0.3785  0.6781
  524SOL    HW2 1408   1.893   3.192   0.861 -0.4679 -0.1096  0.6420
  525SOL     OW 1409   3.970   1.845   3.047 -0.3108  0.0461 -0.0513
  525SOL    HW1 1410   3.973   1.779   3.116 -1.3001  0.3911  0.3348
  525SOL    HW2 1411   3.879   1.875   3.046  0.0741  1.2406 -0.3710
  526SOL     OW 1412   0.017   1.129   0.048 -0.1704  0.0924  0.2617
  526SOL    HW1 1413  -0.033   1.083  -0.020 -0.2536  0.6698 -0.0084
  526SOL    HW2 1414  -0.050   1.170   0.103 -0.0689 -1.1931  1.3328
  527SOL     OW 1415   2.337   3.479   1.538  0.4095 -0.5510  0.9584
  527SOL    HW1 1416   2.245   3.468   1.562  0.5140 -0.2580  1.4925
  527SOL    HW2 1417   2.336   3.484   1.442 -0.0454 -1.3737  0.9094
  528SOL     OW 1418   0.393   3.615   3.244  0.7412  0.3911 -0.1119
  528SOL    HW1 1419   0.473   3.572   3.273  1.6214  1.4723 -0.8682
  528SOL    HW2 1420   0.380   3.687   3.306 -1.3647 -1.5082  1.8585
  529SOL     OW 1421   2.431   0.000   1.437 -0.0494  0.2012  0.4999
  529SOL    HW1 1422   2.508   0.049   1.467  0.0983  1.1755 -1.3140
  529SOL    HW2 1423   2.357   0.049   1.472  0.0820  2.1332 -1.6903
  530SOL     OW 1424   3.315   1.819   3.607  0.0051  0.1542 -0.0133
  530SOL    HW1 1425   3.232   1.822   3.561  0.8850 -0.2412 -1.7000
  530SOL    HW2 1426   3.315   1.734   3.652 -0.2592 -0.0928 -0.4813
  531SOL     OW 1427   0.870   0.088   3.414 -0.3373  0.2137 -0.1632
  531SOL    HW1 1428   0.836   0.139   3.488  3.0992  0.3115  1.5473
  531SOL    HW2 1429   0.882   0.152   3.344  1.5239  1.3597  1.1114
  532SOL     OW 1430   2.644   3.924   1.556 -0.3401  0.5943 -0.7247
  532SOL    HW1 1431   2.568   3.954   1.506 -1.4133 -0.9764 -0.1107
  532SOL    HW2 1432   2.633   3.829   1.562  2.1993  0.1737 -1.4424
  533SOL     OW 1433   2.274   2.470   3.391 -0.0029  0.7338 -0.4177
  533SOL    HW1 1434   2.256   2.546   3.335 -0.0192 -0.2819 -1.8377
  533SOL    HW2 1435   2.346   2.425   3.347 -0.2107 -0.2446  0.2369
  534SOL     OW 1436   1.622   0.477   2.737 -0.1683  0.1713 -0.1152
  534SOL    HW1 1437   1.650   0.466   2.646  1.5067  1.6045  0.1650
  534SOL    HW2 1438   1.545   0.422   2.746 -1.0564  0.8736 -2.7287
  535SOL     OW 1439   2.954   3.368   3.558  0.6452  0.1183 -0.4198
  535SOL    HW1 1440   2.896   3.394   3.487  0.9993  0.4774 -0.5799
  535SOL    HW2 1441   3.016   3.440   3.566  0.4350  0.2160  0.4466
  536SOL     OW 1442   2.350   0.665   2.243  0.6142 -0.6901 -0.5209
  536SOL    HW1 1443   2.369   0.624   2.328  0.2489  0.3592  0.0841
  536SOL    HW2 1444   2.352   0.592   2.181  4.9023 -1.0103 -0.3092
  537SOL     OW 1445   0.818   3.540   3.910  0.0102  0.3178  0.0505
  537SOL    HW1 1446   0.771   3.622   3.894  1.3039  1.2320  0.7508
  537SOL    HW2 1447   0.864   3.554   3.992 -1.2873 -1.8517  1.2698
  538SOL     OW 1448   1.990   1.516   1.535 -0.1326  0.5340  0.5204
  538SOL    HW1 1449   1.970   1.609   1.551  0.9351  0.4590  2.6129
  538SOL    HW2 1450   2.072   1.517   1.487  2.1803  0.7502  4.1211
  539SOL     OW 1451   2.250   0.465   0.605 -0.0292 -0.2361 -0.6274
  539SOL    HW1 1452   2.234   0.556   0.582 -0.6578 -0.6894 -2.1012
  539SOL    HW2 1453   2.206   0.415   0.536  0.5039 -1.6509  0.0270
  540SOL     OW 1454   0.914   1.712   3.089  0.1980 -0.9665  0.1580
  540SOL    HW1 1455   0.979   1.717   3.159  0.9945  0.6472 -0.6477
  540SOL    HW2 1456   0.833   1.743   3.129  0.5219 -0.5672  0.5096
  541SOL     OW 1457   0.982   3.117   1.376  0.0682  0.1824  0.0959
  541SOL    HW1 1458   0.919   3.184   1.405  0.3527  0.5247 -0.0742
  541SOL    HW2 1459   0.927   3.048   1.340 -0.5084 -1.4077  3.6048
  542SOL     OW 1460   1.075   2.027   0.593 -0.3251  0.2423 -0.1815
  542SOL    HW1 1461   1.021   1.959   0.632 -1.2349  1.5124  0.8576
  542SOL    HW2 1462   1.154   2.029   0.647 -1.2133  1.4097  1.1409
  543SOL     OW 1463   1.703   3.888   3.367  0.5308 -0.2581 -0.1505
  543SOL    HW1 1464   1.761   3.866   3.294 -1.1795 -0.9879 -1.3612
  543SOL    HW2 1465   1.615   3.887   3.328 -0.2717  1.2059  1.5119
  544SOL     OW 1466   0.230   2.893   3.572 -0.3165 -0.1781 -0.2556
  544SOL    HW1 1467   0.225   2.933   3.659 -1.8491  1.5165 -1.0642
  544SOL    HW2 1468   0.281   2.956   3.519  0.5363 -1.1528 -0.6333
  545SOL     OW 1469   1.856   3.875   2.431  0.1296  0.4640 -0.2050
  545SOL    HW1 1470   1.929   3.814   2.423  0.9952  1.4996 -0.4522
  545SOL    HW2 1471   1.838   3.879   2.525  1.5507  1.4988  0.0540
  546SOL     OW 1472   1.540   1.539   2.698 -0.3335  0.8913  0.0881
  546SOL    HW1 1473   1.597   1.465   2.676  0.4559  0.8723  2.0491
  546SOL    HW2 1474   1.557   1.604   2.629  0.2150 -0.0782 -0.7108
  547SOL     OW 1475   0.899   1.191   2.366 -0.2098  0.5013 -0.2868
  547SOL    HW1 1476   0.885   1.271   2.316  0.4730 -0.0294 -1.3797
  547SOL    HW2 1477   0.937   1.220   2.449 -0.4153  1.3353 -0.4795
  548SOL     OW 1478   1.513   2.673   2.697  0.4285 -0.1905 -0.0609
  548SOL    HW1 1479   1.478   2.693   2.783 -2.5713 -1.0127 -0.9675
  548SOL    HW2 1480   1.581   2.739   2.683  0.2326  0.6398  2.4507
  549SOL     OW 1481   0.999   2.085   3.866  0.0097 -0.1171  0.6474
  549SOL    HW1 1482   1.011   2.156   3.929 -0.3411 -0.9600  1.6945
  549SOL    HW2 1483   0.915   2.104   3.824  0.3249  0.5400  0.2979
  550SOL     OW 1484   0.335   0.035   0.847 -0.7225  0.1380 -0.3696
  550SOL    HW1 1485   0.272   0.106   0.849 -1.3612 -0.4292 -0.1278
  550SOL    HW2 1486   0.337   0.007   0.756  0.2002  1.0412 -0.6475
  551SOL     OW 1487   2.547   2.374   0.343  0.2451  0.2261 -0.4908
  551SOL    HW1 1488   2.517   2.418   0.263  1.5452  1.1867 -0.4985
  551SOL    HW2 1489   2.561   2.446   0.405  2.3098 -0.1516 -0.4555
  552SOL     OW 1490   3.463   2.166   0.931 -0.0629 -0.3651  0.0469
  552SOL    HW1 1491   3.406   2.200   1.001  1.9204 -0.3958  1.7685
  552SOL    HW2 1492   3.491   2.080   0.962  3.5767  0.9765  1.0051
  553SOL     OW 1493   2.941   1.123   2.908  0.0459  0.2967  0.5960
  553SOL    HW1 1494   3.035   1.142   2.911  0.2199 -0.4172 -0.0922
  553SOL    HW2 1495   2.906   1.192   2.851  0.2469  0.2108  0.3634
  554SOL     OW 1496   2.489   0.271   2.526 -0.5548  0.0018  0.3590
  554SOL    HW1 1497   2.515   0.231   2.609  0.5630  1.2933  0.6737
  554SOL    HW2 1498   2.568   0.268   2.472 -1.1748 -0.5155 -0.5359
  555SOL     OW 1499   0.787   0.611   0.889  0.4731 -0.1766  0.4900
  555SOL    HW1 1500   0.704   0.594   0.934  0.2747 -1.2220 -0.2331
  555SOL    HW2 1501   0.797   0.538   0.829 -0.2328  2.0933 -2.6202
  556SOL     OW 1502   3.234   3.041   2.891 -0.2180  0.3835  0.2589
  556SOL    HW1 1503   3.273   3.067   2.974 -0.0563 -0.0141  0.3113
  556SOL    HW2 1504   3.279   2.959   2.868 -0.4646  0.3389 -0.0743
  557SOL     OW 1505   0.924   0.411   0.055 -0.1273  0.2168 -0.0914
  557SOL    HW1 1506   0.880   0.490   0.023  0.3574  0.0809 -1.1249
  557SOL    HW2 1507   0.882   0.339   0.008 -0.2387 -0.1096  0.5321
  558SOL     OW 1508   1.083   3.578   1.837  0.2349  0.1934  0.3972
  558SOL    HW1 1509   1.118   3.489   1.829 -0.2610  0.2114 -3.5278
  558SOL    HW2 1510   1.159   3.635   1.825  0.1314  0.2952  0.2251
  559SOL     OW 1511   0.281   2.202   1.642  0.0081 -0.2221  0.5624
  559SOL    HW1 1512   0.339   2.272   1.671  1.1135 -1.4024  1.3391
  559SOL    HW2 1513   0.210   2.201   1.706 -0.6842  0.9568 -0.1539
  560SOL     OW 1514   1.628   3.253   1.062  0.4992 -0.0627 -0.5903
  560SOL    HW1 1515   1.694   3.266   0.994  1.3028 -0.1077  0.1674
  560SOL    HW2 1516   1.668   3.191   1.122 -0.6706 -0.9201 -0.6762
  561SOL     OW 1517   1.711   0.869   2.617 -0.1178 -0.5452  0.1430
  561SOL    HW1 1518   1.797   0.836   2.642  0.4579  0.6959 -0.1299
  561SOL    HW2 1519   1.659   0.863   2.698  0.6731  0.0875  0.7190
  562SOL     OW 1520   0.676   0.588   1.337  0.5559  0.7746 -0.3185
  562SOL    HW1 1521   0.697   0.611   1.427  0.6815  0.0493 -0.1558
  562SOL    HW2 1522   0.755   0.547   1.304  0.4023  0.7511 -0.6624
  563SOL     OW 1523   1.110   3.504   3.867 -0.0344  0.1479 -0.7575
  563SOL    HW1 1524   1.142   3.418   3.840  2.7301  1.5065 -2.2161
  563SOL    HW2 1525   1.079   3.491   3.957 -1.0598 -2.6145 -1.4094
  564SOL     OW 1526   1.186   1.184   2.301  0.1552  0.2784  0.9173
  564SOL    HW1 1527   1.192   1.273   2.335  1.2995  0.5107  0.1791
  564SOL    HW2 1528   1.093   1.162   2.306 -0.2058  1.6678  0.7252
  565SOL     OW 1529   1.587   2.468   1.640 -0.3607 -0.0372 -0.7706
  565SOL    HW1 1530   1.559   2.557   1.663  1.3974  0.0925  1.2042
  565SOL    HW2 1531   1.621   2.432   1.722  0.0511 -2.1203 -1.7933
  566SOL     OW 1532   3.235   3.535   2.630 -0.0413 -0.6289 -0.2443
  566SOL    HW1 1533   3.323   3.500   2.645  0.5375  0.4812 -0.8874
  566SOL    HW2 1534   3.250   3.614   2.577 -1.4647 -0.6870 -0.7608
  567SOL     OW 1535   3.448   3.125   0.912  0.1033 -0.0295 -0.1299
  567SOL    HW1 1536   3.394   3.190   0.868  2.9103  1.5649 -1.5522
  567SOL    HW2 1537   3.502   3.175   0.973  0.7183 -1.3689  0.4839
  568SOL     OW 1538   3.011   3.362   0.325  0.1455 -0.5385  0.2006
  568SOL    HW1 1539   2.965   3.309   0.390 -0.8165  0.1590  0.0993
  568SOL    HW2 1540   3.005   3.311   0.244  2.6591 -2.1454  0.9227
  569SOL     OW 1541   0.864   2.417   0.334  0.1793  0.0688 -0.5461
  569SOL    HW1 1542   0.847   2.345   0.395 -1.2732 -0.8364 -1.9373
  569SOL    HW2 1543   0.959   2.419   0.325  0.3714 -0.2451  1.1664
  570SOL     OW 1544   2.306   0.972   3.738  0.0045 -0.4797 -0.0639
  570SOL    HW1 1545   2.329   1.032   3.668  0.8382  0.4243  0.9528
  570SOL    HW2 1546   2.232   1.014   3.782  0.8151  0.0029  0.8658
  571SOL     OW 1547   3.586   1.511   2.940 -0.8904 -0.2152 -0.0376
  571SOL    HW1 1548   3.602   1.587   2.883 -3.7738 -0.9272 -1.9836
  571SOL    HW2 1549   3.524   1.543   3.005  0.2277 -0.1787  1.0627
  572SOL     OW 1550   3.540   3.063   2.091 -0.3080  0.5566  0.3101
  572SOL    HW1 1551   3.534   3.088   1.999  2.5575 -1.3858 -0.5659
  572SOL    HW2 1552   3.615   3.112   2.124 -0.0382 -0.2982  1.0068
  573SOL     OW 1553   1.426   1.685   1.497 -0.1866  0.2300  0.3850
  573SOL    HW1 1554   1.426   1.681   1.592  1.0369  0.5752  0.4197
  573SOL    HW2 1555   1.496   1.625   1.470 -0.4656  0.1967 -0.2911
  574SOL     OW 1556   3.935   2.273   1.034 -0.4602  0.2629 -0.4134
  574SOL    HW1 1557   3.856   2.278   0.981 -1.8519 -1.2040  1.3916
  574SOL    HW2 1558   3.960   2.181   1.031 -0.7540  0.0572  1.6129
  575SOL     OW 1559   2.075   2.848   0.626 -0.2648  0.2904 -0.3477
  575SOL    HW1 1560   2.111   2.893   0.550 -1.3333  0.1816 -0.9402
  575SOL    HW2 1561   2.041   2.765   0.590 -0.5444  0.1250  0.2938
  576SOL     OW 1562   1.245   3.529   0.629 -0.2907 -0.0015 -0.2053
  576SOL    HW1 1563   1.168   3.538   0.573 -0.6142  1.1238  0.3846
  576SOL    HW2 1564   1.317   3.513   0.569 -0.8090  0.0555 -0.8517
  577SOL     OW 1565   3.930   2.151   2.402 -0.2905  0.3620  0.2938
  577SOL    HW1 1566   3.962   2.085   2.463  1.0831  2.2117  1.6565
  577SOL    HW2 1567   3.951   2.234   2.443  0.1808  1.6971 -2.4581
  578SOL     OW 1568   0.177   1.891   2.987  0.0713 -0.0395 -0.5758
  578SOL    HW1 1569   0.229   1.815   2.962 -0.0728 -1.1949  2.2676
  578SOL    HW2 1570   0.106   1.855   3.040 -1.1860  1.9129 -0.8326
  579SOL     OW 1571   1.839   3.683   1.690  0.2101 -0.1751 -0.1786
  579SOL    HW1 1572   1.770   3.669   1.626 -1.0723  0.3352  1.0308
  579SOL    HW2 1573   1.805   3.647   1.772  1.4308 -0.0332  0.4306
  580SOL     OW 1574   3.610   2.455   0.220  0.0135  0.5429  0.5195
  580SOL    HW1 1575   3.588   2.459   0.313 -3.7031  0.1929 -0.1709
  580SOL    HW2 1576   3.589   2.365   0.195  0.7303  0.7003 -0.7343
  581SOL     OW 1577   3.428   0.421   3.570  0.5341  0.1336  0.4944
  581SOL    HW1 1578   3.363   0.484   3.540  0.4971 -0.2453 -0.2537
  581SOL    HW2 1579   3.501   0.474   3.600  0.1798  0.5474  0.6364
  582SOL     OW 1580   0.960   0.159   2.953 -0.3189  0.3418 -0.3538
  582SOL    HW1 1581   1.004   0.178   3.036  2.6170  0.8748 -1.8925
  582SOL    HW2 1582   0.889   0.100   2.977  1.1448 -0.4954  2.4087
  583SOL     OW 1583   1.636   1.047   0.013  0.2091  0.8954  0.0398
  583SOL    HW1 1584   1.569   1.115   0.006 -1.7157 -0.8605  0.4668
  583SOL    HW2 1585   1.671   1.057   0.101 -2.2392 -0.4902  1.2660
  584SOL     OW 1586   2.962   0.805   3.889  0.1543  0.9026 -0.1763
  584SOL    HW1 1587   2.898   0.876   3.876 -0.0336  1.0345  1.2862
  584SOL    HW2 1588   3.043   0.850   3.912 -0.0517  0.6633  1.1007
  585SOL     OW 1589   1.747   0.293   3.765 -0.1227 -0.7654 -0.6282
  585SOL    HW1 1590   1.806   0.245   3.707  1.6383  0.5601 -0.0139
  585SOL    HW2 1591   1.753   0.246   3.849  0.7314 -0.1670 -0.3397
  586SOL     OW 1592   0.438   0.507   2.904 -0.2009 -0.0395  0.1400
  586SOL    HW1 1593   0.441   0.466   2.817 -0.7828 -0.4138  0.2860
  586SOL    HW2 1594   0.345   0.506   2.926 -0.1320  0.7195  0.4556
  587SOL     OW 1595   2.862   2.772   2.933  0.2045  0.3003 -0.1336
  587SOL    HW1 1596   2.868   2.829   3.010 -0.4439  0.4876 -0.2113
  587SOL    HW2 1597   2.770   2.778   2.907 -0.1115 -1.5079  0.4113
  588SOL     OW 1598   0.070   0.300   3.618 -0.3056  0.4089 -0.5147
  588SOL    HW1 1599   0.073   0.328   3.527 -0.8253  0.7463 -0.4368
  588SOL    HW2 1600   0.036   0.211   3.614  0.8677 -0.0458 -0.7289
  589SOL     OW 1601   1.316   1.805   2.557  0.2314  0.2123 -0.3044
  589SOL    HW1 1602   1.356   1.889   2.533 -0.1295  0.4685 -0.0086
  589SOL    HW2 1603   1.316   1.755   2.476 -0.8584  1.0216 -0.8318
  590SOL     OW 1604   3.719   2.000   1.159 -0.2736 -0.0185  0.1063
  590SOL    HW1 1605   3.728   2.095   1.151 -0.6034  0.2028  1.9614
  590SOL    HW2 1606   3.806   1.966   1.139  0.8133  0.9682  2.6963
  591SOL     OW 1607   3.440   3.928   1.050  0.4946  0.3716  0.2649
  591SOL    HW1 1608   3.488   4.011   1.040  0.9383  0.0322 -0.5877
  591SOL    HW2 1609   3.402   3.913   0.964  0.8182 -0.5520  0.2781
  592SOL     OW 1610   3.488   0.151   2.164  0.3128 -1.1655  0.1333
  592SOL    HW1 1611   3.408   0.160   2.111  1.4446 -1.6360 -1.7508
  592SOL    HW2 1612   3.509   0.240   2.191  1.1764 -0.4371 -2.5835
  593SOL     OW 1613   3.215   3.955   3.244 -0.0515 -0.6106  0.0682
  593SOL    HW1 1614   3.220   3.861   3.262  0.1852 -0.5331  0.4306
  593SOL    HW2 1615   3.265   3.968   3.164  1.2052 -0.5885  0.8273
  594SOL     OW 1616   2.814   2.280   3.020 -0.0059 -0.4678 -0.1981
  594SOL    HW1 1617   2.739   2.335   2.996 -0.0173 -0.5221 -0.2862
  594SOL    HW2 1618   2.794   2.251   3.109  0.7691  0.9802  0.4796
  595SOL     OW 1619   2.097   0.323   1.738  0.1710  0.0069  0.0483
  595SOL    HW1 1620   2.010   0.287   1.758  0.0415  0.3196  0.0464
  595SOL    HW2 1621   2.144   0.318   1.821 -0.7381  2.3841  0.8096
  596SOL     OW 1622   3.628   1.489   3.490  0.4373  0.0193 -0.3692
  596SOL    HW1 1623   3.690   1.453   3.554 -1.1359 -0.6073  0.8563
  596SOL    HW2 1624   3.674   1.480   3.406  1.4076 -1.8719  0.2978
  597SOL     OW 1625   2.833   3.580   0.664 -0.0730  0.0560 -0.6946
  597SOL    HW1 1626   2.873   3.626   0.590  0.8027  0.7144  0.1703
  597SOL    HW2 1627   2.777   3.647   0.705 -1.5314 -0.6399 -1.4422
  598SOL     OW 1628   1.678   2.358   3.062 -0.6611 -0.3338 -0.2472
  598SOL    HW1 1629   1.736   2.291   3.099  0.7774  1.8322  1.7509
  598SOL    HW2 1630   1.727   2.440   3.073 -2.6469  1.1687 -1.8787
  599SOL     OW 1631   2.675   3.129   3.460 -0.6982  0.4162 -0.4035
  599SOL    HW1 1632   2.685   3.168   3.373 -1.0178 -0.9994 -1.1076
  599SOL    HW2 1633   2.746   3.065   3.466  1.3182  2.6334  1.6829
  600SOL     OW 1634   3.940   0.260   0.986  0.3320 -0.0326  0.1903
  600SOL    HW1 1635   3.907   0.233   0.900  0.1777  0.5949  0.0473
  600SOL    HW2 1636   3.907   0.194   1.047 -0.0966 -0.1282 -0.1457
  601SOL     OW 1637   2.871   3.049   0.780  0.0259  0.3612  0.1822
  601SOL    HW1 1638   2.860   2.956   0.764  1.7267  0.4725 -2.0643
  601SOL    HW2 1639   2.940   3.054   0.846 -1.2536  0.0578  1.6056
  602SOL     OW 1640   0.295   0.134   3.851  0.9447  0.0473  0.3205
  602SOL    HW1 1641   0.250   0.091   3.778  1.1065  1.3383 -0.5953
  602SOL    HW2 1642   0.235   0.205   3.876  0.9190 -0.3529  1.4205
  603SOL     OW 1643   3.388   2.165   3.632 -0.0516 -0.2391  0.3705
  603SOL    HW1 1644   3.362   2.113   3.556  0.3810  0.4646 -0.2685
  603SOL    HW2 1645   3.366   2.255   3.609  0.4186  0.0247  0.9311
  604SOL     OW 1646   2.548   4.015   0.414 -0.0949 -0.0092  0.5095
  604SOL    HW1 1647   2.607   3.941   0.405  0.3825  0.4318 -0.1447
  604SOL    HW2 1648   2.602   4.085   0.452 -0.6446 -0.1135  1.5177
  605SOL     OW 1649   2.174   2.070   3.057 -0.4934 -0.7648 -0.1101
  605SOL    HW1 1650   2.110   2.041   3.123 -1.3437  1.6923  0.2690
  605SOL    HW2 1651   2.165   2.166   3.057  0.3821 -0.6134 -2.9194
  606SOL     OW 1652   0.197   3.331   2.716 -0.1235  0.7314 -0.0988
  606SOL    HW1 1653   0.289   3.357   2.724  0.9886 -2.4880 -0.8858
  606SOL    HW2 1654   0.172   3.359   2.628  1.5915 -2.0304 -1.6180
  607SOL     OW 1655   2.425   1.443   2.040 -0.1220  0.8977  0.3595
  607SOL    HW1 1656   2.513   1.456   2.077 -0.0352  1.6642 -0.1028
  607SOL    HW2 1657   2.403   1.352   2.063  1.7530 -0.1248 -1.5371
  608SOL     OW 1658   0.693   2.556   2.248 -0.0898 -0.1864 -0.3693
  608SOL    HW1 1659   0.673   2.629   2.189  0.2745 -0.3458 -0.6891
  608SOL    HW2 1660   0.613   2.545   2.300 -0.0521  0.6347 -0.1183
  609SOL     OW 1661   1.669   1.989   0.197 -0.1165  0.0982 -0.1872
  609SOL    HW1 1662   1.705   1.971   0.110  0.6951 -0.4809  0.2528
  609SOL    HW2 1663   1.632   1.906   0.226 -1.2973  0.5418 -0.3836
  610SOL     OW 1664   3.492   3.587   1.548  0.0343  0.4272  0.5446
  610SOL    HW1 1665   3.423   3.651   1.562  2.6081  3.4382  0.5541
  610SOL    HW2 1666   3.494   3.573   1.454 -0.3973  0.5096  0.5214
  611SOL     OW 1667   0.821   0.673   1.543 -0.2533  0.4704  0.2350
  611SOL    HW1 1668   0.829   0.642   1.633 -0.5819  1.8550  0.7624
  611SOL    HW2 1669   0.813   0.768   1.551  1.1792  0.7740 -1.3420
  612SOL     OW 1670   1.528   3.490   2.311  0.1191  0.1933  0.0848
  612SOL    HW1 1671   1.525   3.584   2.325  0.3346  0.1660  0.3392
  612SOL    HW2 1672   1.485   3.452   2.388 -0.6783  0.1082 -0.3993
  613SOL     OW 1673   2.080   3.681   2.383  0.2927 -0.1038  0.3360
  613SOL    HW1 1674   2.163   3.726   2.400 -0.3778  0.7291  1.5420
  613SOL    HW2 1675   2.105   3.604   2.332  1.9829 -0.5478  1.7309
  614SOL     OW 1676   2.471   2.142   1.379 -0.0035  0.6484  0.0181
  614SOL    HW1 1677   2.377   2.141   1.396  0.1125 -2.9483  1.1838
  614SOL    HW2 1678   2.490   2.058   1.339  2.7654  1.1943 -0.0531
  615SOL     OW 1679   0.864   0.675   2.763  0.5147  0.1618  0.1615
  615SOL    HW1 1680   0.867   0.598   2.706 -0.3453  0.0813  0.2106
  615SOL    HW2 1681   0.796   0.654   2.827 -0.3770  1.3228 -0.3658
  616SOL     OW 1682   1.307   2.829   3.148  0.7122 -0.6751  0.1589
  616SOL    HW1 1683   1.249   2.765   3.190  0.5023 -0.6203 -0.0484
  616SOL    HW2 1684   1.280   2.913   3.186 -1.1415 -0.2758 -1.8414
  617SOL     OW 1685   0.957   2.243   1.117  0.4222 -0.2398  0.4817
  617SOL    HW1 1686   0.949   2.266   1.024  0.0691 -1.1570  0.2694
  617SOL    HW2 1687   1.051   2.242   1.133  0.4816  0.0916  0.1736
  618SOL     OW 1688   2.211   1.394   0.154 -0.0440  0.0224 -0.0895
  618SOL    HW1 1689   2.233   1.462   0.091 -1.4320  1.3818  0.8225
  618SOL    HW2 1690   2.227   1.434   0.240 -1.3333 -0.5928  0.4807
  619SOL     OW 1691   2.168   0.769   0.493  0.3748 -0.3079  0.4630
  619SOL    HW1 1692   2.172   0.818   0.575  0.6916 -1.7229  1.3314
  619SOL    HW2 1693   2.256   0.775   0.457  0.5995 -0.7907  0.9173
  620SOL     OW 1694   1.743   1.033   1.298 -0.6199 -0.0294  0.1301
  620SOL    HW1 1695   1.772   1.052   1.209 -1.6414 -1.0502 -0.4477
  620SOL    HW2 1696   1.700   1.114   1.326 -1.6034 -0.1633 -0.8877
  621SOL     OW 1697   1.573   1.460   3.694 -0.4155 -0.1398  0.0004
  621SOL    HW1 1698   1.478   1.459   3.710 -0.4401 -2.0530 -0.1026
  621SOL    HW2 1699   1.588   1.386   3.636  1.2304 -0.2009  0.4680
  622SOL     OW 1700   0.413   2.144   3.733  0.3920  0.2596  0.5270
  622SOL    HW1 1701   0.451   2.141   3.821 -0.4188  1.8204  0.9624
  622SOL    HW2 1702   0.367   2.228   3.729  0.8559  0.4768 -1.5819
  623SOL     OW 1703   4.004   2.728   2.028  0.1328 -0.6067  0.1661
  623SOL    HW1 1704   3.928   2.699   1.977 -0.5214  1.3193 -0.0245
  623SOL    HW2 1705   4.060   2.770   1.963  1.6026 -2.3298  0.2347
  624SOL     OW 1706   0.354   0.107   1.776 -0.3168 -0.0808 -0.7262
  624SOL    HW1 1707   0.310   0.068   1.851  0.1164  0.3056 -0.2574
  624SOL    HW2 1708   0.305   0.076   1.700 -1.8015  0.8497 -0.2028
  625SOL     OW 1709   3.825   2.397   3.304 -0.2016  0.4249 -0.0729
  625SOL    HW1 1710   3.917   2.411   3.328 -0.5319  1.2586  0.7915
  625SOL    HW2 1711   3.804   2.471   3.248 -0.7042  0.9753  0.8186
  626SOL     OW 1712   0.490   3.633   2.997 -0.6157 -0.2002 -0.0466
  626SOL    HW1 1713   0.447   3.706   2.953 -0.2046  0.8468  1.2166
  626SOL    HW2 1714   0.464   3.642   3.089  1.2077 -0.3080  0.5236
  627SOL     OW 1715   0.170   2.709   3.935  0.3944  0.1370 -0.2928
  627SOL    HW1 1716   0.117   2.727   4.013  2.0732 -0.8706  1.1668
  627SOL    HW2 1717   0.139   2.772   3.870  0.7012  2.9348  2.0440
  628SOL     OW 1718   2.218   0.855   1.868 -0.1963  0.3170 -0.0599
  628SOL    HW1 1719   2.129   0.830   1.842  0.7145 -1.2862 -1.8593
  628SOL    HW2 1720   2.274   0.821   1.798  1.9177  0.7224  1.3462
  629SOL     OW 1721   0.669   2.747   0.003 -0.3298  0.3751 -0.3141
  629SOL    HW1 1722   0.581   2.749   0.038 -0.3368 -0.2296 -0.3001
  629SOL    HW2 1723   0.726   2.736   0.079 -0.3058 -0.2478 -0.4151
  630SOL     OW 1724   3.342   0.518   1.285 -0.2767 -0.2028  0.5259
  630SOL    HW1 1725   3.375   0.447   1.229 -0.2786  0.5268 -0.4358
  630SOL    HW2 1726   3.271   0.558   1.234 -2.1478 -1.2064  2.2082
  631SOL     OW 1727   1.895   1.316   1.698 -1.0437  0.4673 -0.0903
  631SOL    HW1 1728   1.916   1.383   1.632 -1.8694  0.2016 -0.6358
  631SOL    HW2 1729   1.945   1.342   1.775 -0.6611  1.2182 -0.5778
  632SOL     OW 1730   1.265   1.658   0.734  0.1403  0.0061 -0.2896
  632SOL    HW1 1731   1.252   1.710   0.813  0.8207  0.3652 -0.4012
  632SOL    HW2 1732   1.286   1.570   0.765  0.8861  0.2623 -0.0574
  633SOL     OW 1733   1.041   3.774   2.382  0.0472 -0.3697  0.1532
  633SOL    HW1 1734   0.984   3.731   2.445 -2.3296  0.9414 -0.9496
  633SOL    HW2 1735   1.042   3.866   2.408 -1.0167  0.2101 -1.6365
  634SOL     OW 1736   3.898   2.937   1.516  0.3273  0.8093 -0.2938
  634SOL    HW1 1737   3.871   2.849   1.487 -1.7565  1.4243 -0.4077
  634SOL    HW2 1738   3.987   2.947   1.482  1.6896 -2.2285  1.9488
  635SOL     OW 1739   3.915   3.721   0.577 -0.0732 -1.3738 -1.3443
  635SOL    HW1 1740   3.873   3.748   0.659 -1.2439 -0.8573 -2.0929
  635SOL    HW2 1741   3.843   3.706   0.516  0.7772 -1.7576 -2.2897
  636SOL     OW 1742   0.536   3.369   0.085  0.2857  0.0215  0.4692
  636SOL    HW1 1743   0.584   3.448   0.109  0.7998 -0.2385  0.3261
  636SOL    HW2 1744   0.461   3.367   0.145 -0.8231  1.6180 -0.7743
  637SOL     OW 1745   1.939   0.744   2.905  0.0899 -0.1388 -0.4345
  637SOL    HW1 1746   1.937   0.818   2.966  1.6649  0.1383 -0.6705
  637SOL    HW2 1747   1.867   0.687   2.934 -0.7034  1.1266  0.1890
  638SOL     OW 1748   3.093   0.449   0.440  0.1347  0.1319  0.6834
  638SOL    HW1 1749   3.001   0.472   0.450 -0.4974 -0.9899 -1.7364
  638SOL    HW2 1750   3.104   0.435   0.346  2.3597 -1.4073  1.0979
  639SOL     OW 1751   2.478   1.091   2.443  0.0700  0.2833  0.8362
  639SOL    HW1 1752   2.522   1.128   2.519  0.9842 -1.1658  1.0616
  639SOL    HW2 1753   2.549   1.056   2.389 -0.6116  0.7032 -0.3694
  640SOL     OW 1754   2.754   2.269   3.292  0.5146  0.0408 -0.0895
  640SOL    HW1 1755   2.756   2.359   3.323 -2.2110  0.6289 -1.3421
  640SOL    HW2 1756   2.747   2.216   3.371  1.4966  0.9495  0.6210
  641SOL     OW 1757   1.227   1.185   0.513 -0.4241 -0.2485  0.0425
  641SOL    HW1 1758   1.296   1.119   0.525 -0.5360 -0.4143 -0.2172
  641SOL    HW2 1759   1.260   1.241   0.442 -0.0956  0.2878  0.6075
  642SOL     OW 1760   3.301   1.662   2.503  0.1140 -0.6932 -0.1179
  642SOL    HW1 1761   3.225   1.703   2.462  0.3226 -0.6280 -0.4422
  642SOL    HW2 1762   3.364   1.650   2.432  0.2581 -1.1013  0.0711
  643SOL     OW 1763   3.578   0.409   2.433 -0.0246  0.2782  0.6115
  643SOL    HW1 1764   3.498   0.417   2.485  1.0836  1.0269  2.3002
  643SOL    HW2 1765   3.553   0.439   2.345 -1.5779  0.5004  1.0980
  644SOL     OW 1766   3.392   0.919   2.008  0.2038  0.2690 -0.8139
  644SOL    HW1 1767   3.485   0.940   2.021  0.2851  0.2762 -1.3753
  644SOL    HW2 1768   3.366   0.874   2.088  0.7330  0.1382 -0.7134
  645SOL     OW 1769   3.320   3.344   1.369 -0.4714 -0.1933 -0.3711
  645SOL    HW1 1770   3.281   3.370   1.286 -0.7686 -0.0618 -0.1919
  645SOL    HW2 1771   3.258   3.374   1.435 -1.3115 -2.1485 -0.1900
  646SOL     OW 1772   2.515   3.480   3.240  0.0789  0.1632 -0.5338
  646SOL    HW1 1773   2.523   3.512   3.151  1.4356  0.7052 -0.2362
  646SOL    HW2 1774   2.454   3.540   3.283 -0.4566 -0.0116 -1.0321
  647SOL     OW 1775   3.992   2.996   0.292  0.0877  0.5498 -0.0656
  647SOL    HW1 1776   3.973   2.904   0.310  0.9459  0.6527  1.6401
  647SOL    HW2 1777   3.984   3.005   0.198 -0.2010 -1.2312 -0.2415
  648SOL     OW 1778   0.851   3.496   2.782  0.2940  0.1205  0.5582
  648SOL    HW1 1779   0.809   3.410   2.786  1.9687 -0.7680  0.1664
  648SOL    HW2 1780   0.855   3.526   2.872  0.4525 -0.6174  0.8017
  649SOL     OW 1781   2.534   3.134   1.116 -0.0578 -0.1757  0.0197
  649SOL    HW1 1782   2.606   3.151   1.055 -0.2227 -0.5105 -0.2762
  649SOL    HW2 1783   2.473   3.080   1.065  0.9624 -2.6264  1.2179
  650SOL     OW 1784   2.923   0.990   0.451  0.1743 -0.0454 -0.0559
  650SOL    HW1 1785   2.944   1.077   0.486 -1.1080  0.1573  0.2988
  650SOL    HW2 1786   2.878   1.008   0.368  0.3341 -0.3919 -0.2186
  651SOL     OW 1787   3.040   0.827   0.732  0.5982  0.0252 -0.3180
  651SOL    HW1 1788   2.950   0.841   0.703  0.7140 -1.1383 -1.3050
  651SOL    HW2 1789   3.032   0.809   0.826 -0.4576 -2.0991 -0.7520
  652SOL     OW 1790   2.001   3.437   2.187 -0.2118  0.0035 -0.2182
  652SOL    HW1 1791   2.062   3.471   2.121  0.3816 -0.5612  0.0258
  652SOL    HW2 1792   1.998   3.342   2.170 -1.3271  0.0652 -0.4699
  653SOL     OW 1793   1.475   3.097   2.333  0.3236  0.5578 -0.4856
  653SOL    HW1 1794   1.527   3.124   2.409 -0.4263 -0.4698  0.4197
  653SOL    HW2 1795   1.476   3.174   2.276  2.3971  0.7545 -0.2810
  654SOL     OW 1796   3.351   0.274   0.333 -0.4792  0.0445 -0.1639
  654SOL    HW1 1797   3.386   0.206   0.275 -0.0898 -1.0441  1.2815
  654SOL    HW2 1798   3.425   0.333   0.349 -0.7586  0.7220 -1.2409
  655SOL     OW 1799   3.798   0.217   2.924  0.0092  0.0727  0.4719
  655SOL    HW1 1800   3.716   0.171   2.943 -0.0756 -0.9403 -1.9902
  655SOL    HW2 1801   3.863   0.172   2.978 -0.5699 -1.1176  0.2217
  656SOL     OW 1802   0.371   0.150   3.493 -0.0258 -0.1463 -0.5609
  656SOL    HW1 1803   0.322   0.108   3.563 -1.0797  0.7618 -0.7108
  656SOL    HW2 1804   0.457   0.109   3.494 -0.5400 -1.2260  0.2437
  657SOL     OW 1805   1.791   0.711   3.292 -0.1242 -0.1935  0.4700
  657SOL    HW1 1806   1.868   0.659   3.268  0.6393  0.7858  0.6873
  657SOL    HW2 1807   1.819   0.758   3.371 -0.1031  1.9271 -0.7202
  658SOL     OW 1808   3.836   4.015   2.987  0.0523  0.2205  0.6015
  658SOL    HW1 1809   3.742   4.009   3.004 -0.1056  1.7769  0.4210
  658SOL    HW2 1810   3.871   4.060   3.064  0.3701  1.1601 -0.0702
  659SOL     OW 1811   2.206   1.541   0.368  0.7961  0.0154  0.2232
  659SOL    HW1 1812   2.158   1.613   0.409  0.9993 -0.0312  0.5494
  659SOL    HW2 1813   2.286   1.534   0.419  2.0520  1.3251 -1.4470
  660SOL     OW 1814   3.319   0.782   2.270  0.0698 -0.3560  0.5597
  660SOL    HW1 1815   3.226   0.765   2.255 -0.6440  2.9068  0.4584
  660SOL    HW2 1816   3.338   0.737   2.352 -1.4638 -1.4170  0.3955
  661SOL     OW 1817   2.519   3.951   2.540  0.9462 -0.0667 -0.1691
  661SOL    HW1 1818   2.546   3.873   2.588  1.5090 -1.1183 -2.0849
  661SOL    HW2 1819   2.430   3.931   2.510  0.5475  0.6282  0.5325
  662SOL     OW 1820   3.390   3.327   1.983 -0.3939 -0.0245  0.0817
  662SOL    HW1 1821   3.408   3.256   1.922  0.1322  0.0372  0.1595
  662SOL    HW2 1822   3.476   3.362   2.006 -0.5307 -0.5030  1.4094
  663SOL     OW 1823   3.719   0.805   3.754 -0.0278  0.2533  0.3435
  663SOL    HW1 1824   3.689   0.830   3.841  1.1398 -0.4482  0.9733
  663SOL    HW2 1825   3.765   0.722   3.767  0.7450  0.4708 -0.8321
  664SOL     OW 1826   2.456   1.018   1.250  0.0325 -0.2584 -0.2227
  664SOL    HW1 1827   2.419   0.946   1.199 -0.8402 -1.5521  2.0811
  664SOL    HW2 1828   2.543   0.987   1.274 -0.5943 -0.8936  1.3346
  665SOL     OW 1829   1.226   0.032   1.064  0.0020 -0.0045  0.4433
  665SOL    HW1 1830   1.179   0.039   1.147 -0.5713 -1.3601  0.2630
  665SOL    HW2 1831   1.312  -0.003   1.087  0.6257  1.6318  0.6689
  666SOL     OW 1832   2.816   1.511   0.700 -0.8477  0.6436  0.5834
  666SOL    HW1 1833   2.778   1.434   0.658 -0.7578 -0.0077  1.6663
  666SOL    HW2 1834   2.906   1.486   0.721  0.3681  2.2598 -2.1659
  667SOL     OW 1835   2.588   1.415   0.045  0.0510 -0.1146  0.0963
  667SOL    HW1 1836   2.544   1.334   0.072 -0.3842 -0.2018 -0.8409
  667SOL    HW2 1837   2.626   1.450   0.126 -3.1310  0.8357  1.3404
  668SOL     OW 1838   3.703   1.912   0.639 -0.2519 -0.1766 -0.3873
  668SOL    HW1 1839   3.722   1.904   0.546  0.4220 -2.2163 -0.1131
  668SOL    HW2 1840   3.607   1.918   0.643 -0.3639 -1.1846 -1.1624
  669SOL     OW 1841   3.985   0.246   1.308 -0.2389  0.1997  0.5827
  669SOL    HW1 1842   4.029   0.161   1.308 -1.3265 -0.3855 -0.1586
  669SOL    HW2 1843   4.014   0.288   1.227 -1.0755 -0.2197  0.0532
  670SOL     OW 1844   2.865   2.197   2.487 -0.1694  0.1277  0.5072
  670SOL    HW1 1845   2.810   2.244   2.549 -0.9121 -1.9282  1.5180
  670SOL    HW2 1846   2.952   2.199   2.526 -0.6150 -1.0803  1.6475
  671SOL     OW 1847   1.481   4.037   1.126  0.1338  0.3445  0.0634
  671SOL    HW1 1848   1.505   3.952   1.161  1.2207  0.2772 -0.7854
  671SOL    HW2 1849   1.554   4.094   1.149 -0.7789  1.1317  1.0062
  672SOL     OW 1850   0.695   2.760   0.526  0.6157 -0.0060 -0.3028
  672SOL    HW1 1851   0.621   2.734   0.470  0.8873 -1.4238 -0.0547
  672SOL    HW2 1852   0.709   2.852   0.506 -0.1972 -0.1220 -1.5353
  673SOL     OW 1853   0.602   2.006   0.053 -0.2571  0.3970 -0.6613
  673SOL    HW1 1854   0.532   1.958   0.097 -0.3505  0.9811 -0.1550
  673SOL    HW2 1855   0.641   2.059   0.122 -0.2120  1.1058 -1.2204
  674SOL     OW 1856   2.682   1.669   3.322 -0.3077 -0.6702  0.1832
  674SOL    HW1 1857   2.694   1.593   3.379 -3.9925 -0.7697  1.1011
  674SOL    HW2 1858   2.684   1.633   3.233  1.4352 -1.2099  0.4112
  675SOL     OW 1859   2.422   3.383   2.689 -0.3266  0.2348 -0.0313
  675SOL    HW1 1860   2.430   3.406   2.596 -0.0928 -2.7555 -0.8592
  675SOL    HW2 1861   2.481   3.443   2.734  0.1409  1.2621 -1.8944
  676SOL     OW 1862   3.989   2.139   3.080 -0.4493 -0.2684 -0.0444
  676SOL    HW1 1863   3.940   2.153   2.999 -0.4474 -0.0747 -0.0114
  676SOL    HW2 1864   4.031   2.053   3.068  1.8621  0.9574 -1.4350
  677SOL     OW 1865   1.002   3.894   0.747 -0.3403 -0.4134  0.0488
  677SOL    HW1 1866   0.999   3.811   0.795 -0.4641 -0.7048 -0.4598
  677SOL    HW2 1867   0.918   3.899   0.702 -0.0756 -0.3206 -0.4390
  678SOL     OW 1868   0.780   1.301   1.683 -0.5297 -0.0008  0.6077
  678SOL    HW1 1869   0.759   1.209   1.667  1.1335 -0.6942  2.0953
  678SOL    HW2 1870   0.854   1.319   1.626 -0.2316  0.1216  1.0285
  679SOL     OW 1871   1.358   3.875   2.485  0.3292 -0.4111  0.1060
  679SOL    HW1 1872   1.414   3.859   2.409  0.4342 -0.3823  0.1777
  679SOL    HW2 1873   1.364   3.795   2.537  1.8835  0.3202  1.1271
  680SOL     OW 1874   2.855   1.338   2.710 -0.2118 -0.3737 -0.1773
  680SOL    HW1 1875   2.944   1.309   2.689 -0.3158 -0.1635 -0.9064
  680SOL    HW2 1876   2.850   1.427   2.676 -1.5756 -1.3136 -2.6169
  681SOL     OW 1877   3.584   1.517   1.425 -0.2964  0.4563 -0.0008
  681SOL    HW1 1878   3.539   1.437   1.397 -1.1239  0.7514  0.4544
  681SOL    HW2 1879   3.624   1.551   1.345  0.2421 -0.5193 -0.1599
  682SOL     OW 1880   3.967   3.462   2.157 -0.4719 -0.5316  0.2164
  682SOL    HW1 1881   4.023   3.539   2.145 -1.0710  0.2827  2.2262
  682SOL    HW2 1882   3.989   3.405   2.083  2.2088  0.2290  0.3141
  683SOL     OW 1883   0.190   2.111   2.805 -0.2134 -0.2367 -0.0635
  683SOL    HW1 1884   0.191   2.023   2.842  0.9455 -0.8054 -1.3863
  683SOL    HW2 1885   0.282   2.136   2.798 -0.5088  0.8845 -0.1828
  684SOL     OW 1886   3.590   2.736   1.074  0.3153 -0.3111 -0.5106
  684SOL    HW1 1887   3.519   2.761   1.133 -0.1369 -0.5072 -0.9660
  684SOL    HW2 1888   3.644   2.815   1.068  0.1863 -0.1889 -0.0868
  685SOL     OW 1889   1.173   3.427   1.240 -0.3089  0.4331  0.3961
  685SOL    HW1 1890   1.229   3.408   1.164  1.4709 -3.2994  2.3806
  685SOL    HW2 1891   1.085   3.436   1.203  0.5712 -0.4842 -2.1554
  686SOL     OW 1892   1.812   2.575   0.762  0.0254  0.1209  0.1884
  686SOL    HW1 1893   1.798   2.523   0.683 -0.2059 -0.6117  0.7045
  686SOL    HW2 1894   1.798   2.666   0.733 -1.5718 -0.2452 -0.2994
  687SOL     OW 1895   0.992   2.396   2.319 -0.5433 -0.2784 -0.2034
  687SOL    HW1 1896   1.078   2.357   2.334 -0.6548 -0.7827 -0.8620
  687SOL    HW2 1897   0.970   2.374   2.229 -0.8344  0.8740 -0.4379
  688SOL     OW 1898   2.955   1.352   1.263 -0.0082 -0.4079  0.4714
  688SOL    HW1 1899   3.011   1.286   1.221 -0.2891 -0.0454 -0.5070
  688SOL    HW2 1900   2.939   1.417   1.194  2.6997  2.3215  2.1416
  689SOL     OW 1901   1.518   3.024   2.787  0.0989  0.3361  0.5284
  689SOL    HW1 1902   1.519   3.116   2.816 -0.4155  0.0870  1.3540
  689SOL    HW2 1903   1.458   2.980   2.847 -1.1178 -0.1782 -0.9933
  690SOL     OW 1904   2.040   2.911   1.433 -0.2017  0.3349  0.1545
  690SOL    HW1 1905   2.106   2.968   1.472 -0.3240  0.5834 -0.0033
  690SOL    HW2 1906   2.017   2.953   1.350  0.5619 -0.5303 -0.5338
  691SOL     OW 1907   0.165   0.774   2.776 -0.5544  0.0547 -0.4612
  691SOL    HW1 1908   0.188   0.761   2.684  0.0767 -0.9987 -0.1739
  691SOL    HW2 1909   0.070   0.767   2.778 -0.6155  0.5732 -1.0991
  692SOL     OW 1910   4.034   1.252   0.799  0.9027  0.3596 -0.2057
  692SOL    HW1 1911   4.015   1.271   0.891 -0.1241 -1.0666 -0.0728
  692SOL    HW2 1912   4.046   1.337   0.758  2.1184  0.9903  1.3888
  693SOL     OW 1913   3.246   3.958   4.003  0.3616  0.0556  0.9704
  693SOL    HW1 1914   3.234   3.873   3.961 -1.5081 -0.5664  2.6053
  693SOL    HW2 1915   3.297   4.009   3.941 -1.7609 -0.9675 -1.8098
  694SOL     OW 1916   3.187   0.282   3.743 -0.5084 -0.0929 -0.5489
  694SOL    HW1 1917   3.113   0.332   3.775  0.1808  1.3743 -1.1419
  694SOL    HW2 1918   3.243   0.347   3.700  0.7393 -1.2779 -0.7902
  695SOL     OW 1919   1.917   0.731   0.603 -0.5942  0.5400  0.6768
  695SOL    HW1 1920   2.003   0.734   0.562 -1.1554 -0.8675 -0.7093
  695SOL    HW2 1921   1.924   0.660   0.667 -0.2798  1.4884  1.7258
  696SOL     OW 1922   0.130   2.141   3.955 -0.2882 -0.5455 -0.3879
  696SOL    HW1 1923   0.103   2.104   3.871  1.4570 -0.4912 -1.0133
  696SOL    HW2 1924   0.188   2.075   3.993 -0.6224 -0.3252  0.5216
  697SOL     OW 1925   2.327   0.526   3.083  0.2083  0.1360 -0.2089
  697SOL    HW1 1926   2.291   0.592   3.024  1.0229  0.4784 -0.3291
  697SOL    HW2 1927   2.267   0.452   3.076 -0.5395  0.7421 -0.3073
  698SOL     OW 1928   0.740   3.958   0.730 -0.0769  0.1807  0.4345
  698SOL    HW1 1929   0.734   4.046   0.767 -0.6257 -0.1450  1.1623
  698SOL    HW2 1930   0.712   3.967   0.639 -1.1788  0.5779  0.8008
  699SOL     OW 1931   2.139   0.058   1.064 -0.3640 -0.4026  0.2341
  699SOL    HW1 1932   2.046   0.081   1.066 -0.9445 -2.5795  0.7544
  699SOL    HW2 1933   2.157   0.036   0.973 -1.4164 -3.6426  0.6936
  700SOL     OW 1934   1.851   0.215   1.805  0.3033  0.6791 -0.4235
  700SOL    HW1 1935   1.776   0.176   1.758  0.2518 -0.5438  0.6143
  700SOL    HW2 1936   1.828   0.207   1.897  0.9559  1.9102 -0.1392
  701SOL     OW 1937   3.988   2.929   2.524  0.2594  0.2630 -0.4127
  701SOL    HW1 1938   3.969   3.021   2.541 -2.1333 -0.0449 -1.0443
  701SOL    HW2 1939   4.027   2.897   2.606 -0.0952  1.5112  0.2734
  702SOL     OW 1940   1.797   0.077   3.965 -0.3770 -0.2719 -0.1891
  702SOL    HW1 1941   1.822  -0.014   3.948 -1.5300 -0.3776 -1.3501
  702SOL    HW2 1942   1.705   0.071   3.991 -0.4937  0.5577 -0.3850
  703SOL     OW 1943   3.773   3.550   0.857 -0.3907  0.0245  0.3116
  703SOL    HW1 1944   3.678   3.554   0.845 -0.4880 -1.3872  0.4893
  703SOL    HW2 1945   3.790   3.463   0.892  1.0718 -0.0903 -0.5907
  704SOL     OW 1946   1.167   3.115   1.088  0.1357  0.0372  0.1530
  704SOL    HW1 1947   1.259   3.113   1.115  0.2658 -3.2663 -0.2097
  704SOL    HW2 1948   1.119   3.126   1.170  0.7911  1.1022  0.4198
  705SOL     OW 1949   3.493   2.416   2.854 -0.6182 -0.6256 -0.1104
  705SOL    HW1 1950   3.510   2.323   2.864  0.9628 -0.1975  1.7962
  705SOL    HW2 1951   3.411   2.431   2.902 -1.9454 -1.2868 -2.0502
  706SOL     OW 1952   3.991   2.328   2.038  0.8601 -0.5218 -0.1843
  706SOL    HW1 1953   3.946   2.400   2.082  0.8045 -0.2076 -0.7322
  706SOL    HW2 1954   3.921   2.274   2.001  0.5833 -3.5953  4.1254
  707SOL     OW 1955   2.697   0.944   1.798 -0.5700  0.0185 -0.1096
  707SOL    HW1 1956   2.793   0.942   1.802 -0.4210  0.0388 -2.2836
  707SOL    HW2 1957   2.670   0.991   1.877  1.2873  1.1643 -0.1042
  708SOL     OW 1958   0.477   0.382   3.192  0.4818  0.3179 -0.0657
  708SOL    HW1 1959   0.543   0.446   3.166  0.7121  0.3523  0.5823
  708SOL    HW2 1960   0.430   0.362   3.111  0.5526  1.1318 -0.3232
  709SOL     OW 1961   2.165   0.563   1.373 -0.4195  0.0911  0.0490
  709SOL    HW1 1962   2.108   0.536   1.301  0.0592  1.2815 -0.7975
  709SOL    HW2 1963   2.212   0.484   1.397 -0.4628 -0.2826 -1.0618
  710SOL     OW 1964   1.132   0.623   3.994 -0.0222 -0.0221 -0.0693
  710SOL    HW1 1965   1.077   0.575   4.056 -1.3701  1.4242 -0.0739
  710SOL    HW2 1966   1.197   0.667   4.048 -0.9541  0.9234  0.2969
  711SOL     OW 1967   2.865   1.865   3.320 -0.3721 -0.5226 -0.1617
  711SOL    HW1 1968   2.779   1.823   3.321 -0.3981 -0.4681 -0.0939
  711SOL    HW2 1969   2.886   1.875   3.227 -0.4830 -0.4449 -0.1781
  712SOL     OW 1970   0.402   3.812   0.537 -0.5203 -1.0750 -0.4382
  712SOL    HW1 1971   0.469   3.822   0.470 -0.2878  0.6094  0.0011
  712SOL    HW2 1972   0.333   3.761   0.495  0.1241 -1.0325 -1.5782
  713SOL     OW 1973   3.087   0.946   2.510  0.0548  0.3654 -0.0600
  713SOL    HW1 1974   2.995   0.962   2.531 -0.3767 -0.0988 -1.4811
  713SOL    HW2 1975   3.099   0.852   2.525  0.8340  0.7402  1.9503
  714SOL     OW 1976   2.194   1.250   0.539 -0.0306  0.1599  0.3022
  714SOL    HW1 1977   2.255   1.320   0.560 -1.2580  1.1553  0.6901
  714SOL    HW2 1978   2.150   1.231   0.623  1.3170 -2.1623  0.5823
  715SOL     OW 1979   0.291   0.685   2.501  0.4259 -0.2803 -0.5304
  715SOL    HW1 1980   0.382   0.700   2.478  0.2314  0.0951 -1.0604
  715SOL    HW2 1981   0.293   0.605   2.554  1.5327  1.6071  2.5979
  716SOL     OW 1982   0.462   2.117   2.770  0.0888  0.0079 -0.8053
  716SOL    HW1 1983   0.525   2.189   2.762  1.1889 -0.8694 -0.2976
  716SOL    HW2 1984   0.511   2.047   2.813 -1.5015 -0.3858  0.4834
  717SOL     OW 1985   0.162   0.452   1.029 -0.3932  0.3401 -0.4882
  717SOL    HW1 1986   0.254   0.463   1.004  0.0245  2.4039  1.5389
  717SOL    HW2 1987   0.140   0.363   1.004  2.1015 -0.1419 -1.2256
  718SOL     OW 1988   1.475   0.111   0.450 -0.0709  0.5398 -0.0918
  718SOL    HW1 1989   1.466   0.076   0.362 -1.7385 -0.7291  0.5350
  718SOL    HW2 1990   1.534   0.049   0.495 -0.1726  0.5237  0.0197
  719SOL     OW 1991   2.993   3.077   1.071  0.0107  0.2829  0.3119
  719SOL    HW1 1992   2.948   3.024   1.138  0.8125  0.6278  1.1527
  719SOL    HW2 1993   3.084   3.078   1.099  0.0367  2.0455  0.2842
  720SOL     OW 1994   2.042   0.052   2.024 -0.4235  0.2859  0.0799
  720SOL    HW1 1995   2.090  -0.028   2.001 -0.9152  0.2262 -0.6184
  720SOL    HW2 1996   1.981   0.023   2.093 -1.7291 -0.3245 -1.2883
  721SOL     OW 1997   0.176   1.320   3.463  0.0655 -0.2355 -0.8424
  721SOL    HW1 1998   0.253   1.305   3.408 -0.1963  0.3665 -1.3866
  721SOL    HW2 1999   0.156   1.235   3.501  1.8564 -0.1377  0.4454
  722SOL     OW 2000   2.196   3.012   3.194 -0.8896  0.2011  0.3427
  722SOL    HW1 2001   2.160   2.969   3.117 -2.1712  1.4336  0.2134
  722SOL    HW2 2002   2.121   3.054   3.236 -0.2496 -0.5498  2.3731
  723SOL     OW 2003   0.609   3.335   1.972 -0.2509  0.0811  0.1219
  723SOL    HW1 2004   0.663   3.278   1.917  1.6540  0.5564  1.3801
  723SOL    HW2 2005   0.568   3.395   1.910  0.4038 -0.5080 -0.9301
  724SOL     OW 2006   1.377   3.687   3.616  0.1466  0.4798 -0.7796
  724SOL    HW1 2007   1.418   3.626   3.679  0.3517  1.5537  0.1510
  724SOL    HW2 2008   1.341   3.630   3.548  0.0034 -0.7112  0.2595
  725SOL     OW 2009   3.292   3.427   2.947  0.0547  0.1379  0.2851
  725SOL    HW1 2010   3.242   3.503   2.918 -1.3630 -1.3932 -1.5951
  725SOL    HW2 2011   3.345   3.402   2.871  0.4261 -0.7976  0.8265
  726SOL     OW 2012   2.662   0.381   3.195 -0.1330 -0.3220  0.0882
  726SOL    HW1 2013   2.623   0.317   3.254  0.2517 -1.7413 -1.1487
  726SOL    HW2 2014   2.753   0.388   3.223  0.8898 -3.2506 -2.0507
  727SOL     OW 2015   0.462   3.959   2.412  0.3320 -0.6749  0.1955
  727SOL    HW1 2016   0.454   3.888   2.475 -0.4926 -1.3942 -0.6860
  727SOL    HW2 2017   0.496   3.917   2.333 -0.1722 -0.0921 -0.3443
  728SOL     OW 2018   3.616   2.650   2.837 -0.0469  0.1394  0.3313
  728SOL    HW1 2019   3.567   2.568   2.849  0.2683 -0.0125  0.6051
  728SOL    HW2 2020   3.667   2.659   2.917 -0.6168  0.9849  0.6097
  729SOL     OW 2021   3.307   3.849   2.162  0.0239  0.1083  0.3433
  729SOL    HW1 2022   3.348   3.770   2.126 -0.0018  1.0346 -1.8979
  729SOL    HW2 2023   3.359   3.871   2.239  1.1291 -1.0746 -0.0408
  730SOL     OW 2024   0.700   3.250   2.755  0.2316  0.0093 -0.2722
  730SOL    HW1 2025   0.631   3.195   2.792  1.1275 -0.1488  1.2418
  730SOL    HW2 2026   0.751   3.191   2.700 -0.0338 -0.1862 -0.3106
  731SOL     OW 2027   0.680   1.032   3.057  0.0394 -0.6069  0.3068
  731SOL    HW1 2028   0.752   1.073   3.105 -1.8475  0.4608  2.4006
  731SOL    HW2 2029   0.606   1.092   3.068 -1.5453 -2.2992 -0.5951
  732SOL     OW 2030   3.513   2.773   2.017  0.1324  0.5192 -0.5530
  732SOL    HW1 2031   3.506   2.730   2.102 -2.0611  0.2661 -0.8133
  732SOL    HW2 2032   3.531   2.865   2.037 -2.2748  0.8621  0.3190
  733SOL     OW 2033   4.013   1.764   2.797  0.5602 -0.0754  0.1300
  733SOL    HW1 2034   4.040   1.817   2.872 -1.0007  1.3534 -0.2552
  733SOL    HW2 2035   3.942   1.815   2.756 -0.7058 -2.2530 -0.5405
  734SOL     OW 2036   2.336   3.281   3.311  0.3531 -0.0629  0.2651
  734SOL    HW1 2037   2.263   3.295   3.250  2.6291 -0.7820 -2.8434
  734SOL    HW2 2038   2.410   3.325   3.270  2.6814 -2.9494  1.0789
  735SOL     OW 2039   3.375   1.126   2.569 -0.3771  0.1393  0.1670
  735SOL    HW1 2040   3.312   1.193   2.543 -1.7396 -0.3955  1.8848
  735SOL    HW2 2041   3.403   1.152   2.657  0.1081 -0.8159  0.3040
  736SOL     OW 2042   3.383   1.737   3.876  0.0027 -0.2684  0.3823
  736SOL    HW1 2043   3.315   1.699   3.821 -0.1987  0.9811 -0.2623
  736SOL    HW2 2044   3.336   1.771   3.952  0.0684 -0.5220  0.5365
  737SOL     OW 2045   3.805   3.930   2.434  0.1567 -0.4114 -0.1837
  737SOL    HW1 2046   3.766   3.975   2.358  0.4101 -1.0422 -0.6966
  737SOL    HW2 2047   3.747   3.952   2.507 -0.1289  0.1583 -0.5711
  738SOL     OW 2048   2.677   2.991   1.770  0.1014  0.2884 -0.7104
  738SOL    HW1 2049   2.676   2.900   1.740  1.0164 -0.5572  1.5914
  738SOL    HW2 2050   2.703   3.041   1.693  2.3135 -1.7163 -1.4041
  739SOL     OW 2051   0.704   3.318   0.603 -0.0240  0.3597  0.1432
  739SOL    HW1 2052   0.681   3.289   0.691 -2.2819  1.4108 -0.0483
  739SOL    HW2 2053   0.681   3.245   0.547  2.6748 -0.8643  0.4445
  740SOL     OW 2054   2.191   0.255   1.272  0.0829 -0.0949  0.4595
  740SOL    HW1 2055   2.164   0.188   1.208  0.3120  1.7003 -1.6233
  740SOL    HW2 2056   2.116   0.261   1.332 -0.9813 -0.4846 -0.7779
  741SOL     OW 2057   3.183   2.228   3.303 -0.7450 -0.0812  0.2528
  741SOL    HW1 2058   3.278   2.236   3.294 -0.8939 -0.5813 -2.5566
  741SOL    HW2 2059   3.152   2.319   3.306 -0.2130  0.0871  1.3694
  742SOL     OW 2060   3.340   2.816   2.776 -0.7231 -0.6886 -0.4905
  742SOL    HW1 2061   3.273   2.761   2.816 -0.9441 -0.6688 -0.8297
  742SOL    HW2 2062   3.406   2.754   2.743 -1.2279 -0.7885 -1.3419
  743SOL     OW 2063   3.904   2.553   2.194  0.0661 -0.5087 -0.4507
  743SOL    HW1 2064   3.934   2.631   2.147  0.6774 -0.7548 -0.4662
  743SOL    HW2 2065   3.815   2.576   2.223  0.8290  0.8548  1.0125
  744SOL     OW 2066   1.265   2.392   3.289 -0.3294 -0.8330  0.1620
  744SOL    HW1 2067   1.328   2.428   3.226  0.3070 -0.3963  1.0326
  744SOL    HW2 2068   1.317   2.332   3.343 -0.7358 -0.7466  0.6574
  745SOL     OW 2069   1.607   3.972   0.610  0.3269 -0.0190  0.9729
  745SOL    HW1 2070   1.558   3.917   0.549 -1.1668  0.8572  1.3551
  745SOL    HW2 2071   1.548   3.987   0.683  1.9226 -0.6332  2.4402
  746SOL     OW 2072   0.532   3.066   2.890 -0.2173 -0.0970  0.5728
  746SOL    HW1 2073   0.621   3.032   2.885 -0.0275  0.2031  1.6730
  746SOL    HW2 2074   0.480   3.006   2.837  0.3892 -1.1460  1.1390
  747SOL     OW 2075   0.977   0.944   1.625  0.4403 -0.1899  0.2695
  747SOL    HW1 2076   1.004   1.017   1.570 -0.1632 -0.8967 -1.0209
  747SOL    HW2 2077   0.894   0.973   1.664  0.7419  0.2219  0.6076
  748SOL     OW 2078   3.335   4.018   2.788  0.4594 -0.7469  0.1275
  748SOL    HW1 2079   3.396   3.956   2.747  1.1737 -0.4531  0.7044
  748SOL    HW2 2080   3.385   4.054   2.861 -0.1894 -0.0365  0.2090
  749SOL     OW 2081   2.655   1.038   0.705 -0.1412  0.0657 -0.0297
  749SOL    HW1 2082   2.706   0.968   0.664  1.9760  1.7788 -0.4835
  749SOL    HW2 2083   2.633   1.004   0.792  2.5896 -0.4850  0.5495
  750SOL     OW 2084   3.467   1.919   3.410 -0.3906  0.2492 -0.0591
  750SOL    HW1 2085   3.427   1.892   3.493  0.5520  2.3131  1.1546
  750SOL    HW2 2086   3.553   1.878   3.410  0.4910  1.9586  1.1199
  751SOL     OW 2087   1.053   0.071   0.853  0.2816  0.0079  0.0155
  751SOL    HW1 2088   1.111   0.054   0.928 -0.7158 -0.9251  0.6057
  751SOL    HW2 2089   1.037  -0.015   0.815 -0.0048  0.3612 -0.6731
  752SOL     OW 2090   3.752   2.379   2.610 -0.5771  0.1442  0.1450
  752SOL    HW1 2091   3.755   2.452   2.672  0.1513  0.1023  0.1701
  752SOL    HW2 2092   3.826   2.395   2.552  0.1892 -1.0893  0.7420
  753SOL     OW 2093   3.806   1.818   1.493 -0.3005 -0.1605  0.6501
  753SOL    HW1 2094   3.866   1.887   1.521 -0.0874  0.0975 -0.3783
  753SOL    HW2 2095   3.725   1.865   1.470 -0.2759 -0.2912  0.2936
  754SOL     OW 2096   1.076   1.734   2.390 -0.3189  0.3380 -0.7193
  754SOL    HW1 2097   1.084   1.672   2.318 -0.0374  1.2673 -1.5080
  754SOL    HW2 2098   0.985   1.729   2.417 -0.1754 -0.8138 -0.3978
  755SOL     OW 2099   2.893   3.684   1.773  0.3314 -0.0918 -0.2122
  755SOL    HW1 2100   2.884   3.603   1.823 -1.9186  0.0052 -0.3692
  755SOL    HW2 2101   2.936   3.657   1.692 -1.3214 -1.3859 -0.7237
  756SOL     OW 2102   0.970   1.769   2.028 -0.0605  0.4283  0.0348
  756SOL    HW1 2103   0.891   1.715   2.027  0.4262 -0.3126 -2.0007
  756SOL    HW2 2104   0.981   1.798   1.938 -0.2415  3.9583  1.0018
  757SOL     OW 2105   1.308   2.480   2.699 -0.9979  0.2611  0.7714
  757SOL    HW1 2106   1.240   2.533   2.658 -0.6943 -0.0125 -0.1223
  757SOL    HW2 2107   1.388   2.531   2.687 -0.9657  0.3705  1.4097
  758SOL     OW 2108   1.259   3.798   2.808 -0.1689  0.5185 -0.1022
  758SOL    HW1 2109   1.193   3.731   2.826 -0.1136  0.0636 -1.4904
  758SOL    HW2 2110   1.220   3.879   2.839 -1.0174  0.1310 -0.1277
  759SOL     OW 2111   3.817   0.147   3.866 -0.0899 -0.2802 -0.5232
  759SOL    HW1 2112   3.815   0.218   3.801  0.6861 -0.3818 -0.6652
  759SOL    HW2 2113   3.878   0.083   3.830  1.7052  0.4299  1.0677
  760SOL     OW 2114   0.071   2.126   1.277 -0.1182  0.0773  0.1880
  760SOL    HW1 2115  -0.015   2.148   1.312  0.1541  3.3885 -0.9813
  760SOL    HW2 2116   0.063   2.141   1.182  1.8556  1.0902  0.1236
  761SOL     OW 2117   2.938   0.600   0.008 -0.0917 -0.4317  1.0486
  761SOL    HW1 2118   2.908   0.527  -0.047 -1.6494  0.3795  0.7485
  761SOL    HW2 2119   2.946   0.674  -0.053 -0.4284  0.1182  1.6563
  762SOL     OW 2120   0.024   1.434   1.191  0.2603  0.1517  0.2305
  762SOL    HW1 2121  -0.066   1.424   1.221 -0.2061  0.3320 -1.1406
  762SOL    HW2 2122   0.077   1.398   1.261 -0.6520  3.2651  2.7358
  763SOL     OW 2123   4.069   2.816   3.713 -0.0574 -0.1085  0.0170
  763SOL    HW1 2124   4.004   2.755   3.678  1.0872 -2.4487  1.6857
  763SOL    HW2 2125   4.138   2.819   3.646 -0.1154 -0.7476 -0.0351
  764SOL     OW 2126   0.917   1.534   0.728 -0.3357  0.0397 -0.6010
  764SOL    HW1 2127   0.983   1.471   0.700  0.4762  0.7543 -0.3222
  764SOL    HW2 2128   0.835   1.483   0.729  0.3369 -1.0712 -0.1368
  765SOL     OW 2129   0.703   3.549   0.197 -0.1517  0.5277  0.5521
  765SOL    HW1 2130   0.702   3.516   0.286  0.0774 -1.5315 -0.1576
  765SOL    HW2 2131   0.792   3.580   0.183  0.2409 -0.5306  0.5934
  766SOL     OW 2132   1.119   2.011   0.905 -0.1916 -0.1241 -0.3391
  766SOL    HW1 2133   1.152   2.061   0.980  0.0960 -1.1346  0.2314
  766SOL    HW2 2134   1.039   2.056   0.879  1.1277  1.8340 -1.1691
  767SOL     OW 2135   0.175   1.364   0.069 -0.4296  0.0946 -0.3498
  767SOL    HW1 2136   0.130   1.280   0.063  0.8572 -0.7091  0.7497
  767SOL    HW2 2137   0.258   1.350   0.022 -0.5080  0.9676 -0.7588
  768SOL     OW 2138   3.327   2.774   1.824  0.2661 -0.6953 -0.1034
  768SOL    HW1 2139   3.397   2.769   1.890 -0.3760  0.9912  0.7529
  768SOL    HW2 2140   3.327   2.865   1.796 -1.2120 -0.8060 -0.5156
  769SOL     OW 2141   1.506   2.471   1.092  0.4490 -0.0807  0.4982
  769SOL    HW1 2142   1.506   2.461   1.187 -0.3705  0.3866  0.5560
  769SOL    HW2 2143   1.487   2.564   1.077 -1.1698 -0.4653 -0.1295
  770SOL     OW 2144   2.625   2.090   2.869  0.3428  0.2835  0.2852
  770SOL    HW1 2145   2.651   2.180   2.890  0.0412  0.3656  0.3163
  770SOL    HW2 2146   2.529   2.093   2.868  0.3105  0.5273 -2.1240
  771SOL     OW 2147   2.465   2.273   3.312  0.5188 -0.5537 -0.0716
  771SOL    HW1 2148   2.429   2.187   3.334 -0.1172 -0.5051 -0.8756
  771SOL    HW2 2149   2.554   2.254   3.282  0.3733 -0.9376 -0.2726
  772SOL     OW 2150   0.746   2.075   3.744 -0.3841 -0.4825 -0.6280
  772SOL    HW1 2151   0.655   2.051   3.727 -0.3182 -2.8432  1.7601
  772SOL    HW2 2152   0.797   2.010   3.694 -0.0333 -0.2040 -0.6370
  773SOL     OW 2153   2.250   1.323   1.070 -0.6478 -0.2912 -0.6298
  773SOL    HW1 2154   2.160   1.352   1.084 -0.3717  0.2986  0.0316
  773SOL    HW2 2155   2.276   1.286   1.155  0.2679  1.0703 -0.2902
  774SOL     OW 2156   2.978   2.814   0.667  0.3555 -0.4793  0.5989
  774SOL    HW1 2157   3.059   2.860   0.690  1.2482 -2.1354  0.9567
  774SOL    HW2 2158   2.982   2.733   0.718 -0.5956 -1.4838 -0.8566
  775SOL     OW 2159   3.191   0.408   2.774 -0.2843 -0.1761  0.2029
  775SOL    HW1 2160   3.114   0.464   2.760  0.1550  0.4469  0.2842
  775SOL    HW2 2161   3.154   0.326   2.808 -1.0020 -0.2229 -0.6346
  776SOL     OW 2162   0.036   3.902   0.494 -0.3261  0.4068 -0.2488
  776SOL    HW1 2163   0.111   3.848   0.469 -1.1057  0.0583 -2.0201
  776SOL    HW2 2164  -0.030   3.840   0.525 -0.7658  0.4186 -1.1950
  777SOL     OW 2165   1.312   0.690   2.361 -0.5332  0.8152 -0.4089
  777SOL    HW1 2166   1.258   0.694   2.283  0.7128  1.8853 -1.2586
  777SOL    HW2 2167   1.346   0.779   2.372  0.7333  0.2796  0.3089
  778SOL     OW 2168   0.633   0.440   1.999 -0.0000 -0.1225  0.3301
  778SOL    HW1 2169   0.566   0.454   2.065 -0.4271  1.2715 -0.3766
  778SOL    HW2 2170   0.716   0.451   2.046 -0.2627 -0.6598  0.9398
  779SOL     OW 2171   1.246   1.134   2.684  0.1706 -0.0987  0.4832
  779SOL    HW1 2172   1.207   1.148   2.770 -0.1976 -0.4924  0.3841
  779SOL    HW2 2173   1.185   1.175   2.622  1.7792  2.6466  0.5814
  780SOL     OW 2174   1.423   1.939   1.014  0.1351  0.1841 -0.3514
  780SOL    HW1 2175   1.486   2.004   1.045 -1.4732  1.5730  0.1558
  780SOL    HW2 2176   1.447   1.924   0.923  0.9104  1.0512 -0.3043
  781SOL     OW 2177   3.824   3.716   0.088 -0.0498 -0.2432 -0.0080
  781SOL    HW1 2178   3.867   3.664   0.156  0.3209 -0.8600 -0.7020
  781SOL    HW2 2179   3.771   3.780   0.137 -0.8479 -1.5322  0.8580
  782SOL     OW 2180   2.943   2.723   2.533 -0.1858  0.0619  0.3513
  782SOL    HW1 2181   2.928   2.674   2.614  1.7783 -0.7615  0.2651
  782SOL    HW2 2182   3.013   2.676   2.489 -0.1335  1.4041 -1.0864
  783SOL     OW 2183   3.655   4.002   3.422 -0.0404 -0.5843 -0.0913
  783SOL    HW1 2184   3.602   4.027   3.497 -1.1531 -1.8446 -0.4327
  783SOL    HW2 2185   3.658   4.081   3.368  2.2943  0.9203  2.0425
  784SOL     OW 2186   0.314   2.783   2.280 -0.5448 -0.5712 -0.0164
  784SOL    HW1 2187   0.290   2.727   2.205  1.3793  0.7719 -1.7337
  784SOL    HW2 2188   0.284   2.870   2.255  3.1896  0.6185 -0.9842
  785SOL     OW 2189   1.207   4.054   1.330 -0.0115 -0.6983  0.3476
  785SOL    HW1 2190   1.284   4.103   1.357  0.4572  0.0456 -2.1333
  785SOL    HW2 2191   1.241   3.970   1.300  0.0981  0.2034 -2.1383
  786SOL     OW 2192   2.158   2.063   0.011 -0.8260  0.5481  0.5100
  786SOL    HW1 2193   2.082   2.114  -0.015 -0.2009  1.0458 -0.3927
  786SOL    HW2 2194   2.200   2.116   0.079 -0.5421  0.9217  0.0056
  787SOL     OW 2195   1.286   1.756   1.836  0.1143  0.5750  0.3720
  787SOL    HW1 2196   1.324   1.670   1.817 -0.5995  0.3820 -0.2369
  787SOL    HW2 2197   1.334   1.787   1.913  0.5551 -0.2567  0.4440
  788SOL     OW 2198   0.064   3.699   3.776  0.1791 -0.1866  0.0878
  788SOL    HW1 2199  -0.000   3.698   3.705 -0.4337  1.8849  0.5664
  788SOL    HW2 2200   0.105   3.613   3.773 -2.3763 -1.4829 -0.4618
  789SOL     OW 2201   0.232   3.191   0.320 -0.1622  0.2099  0.1513
  789SOL    HW1 2202   0.304   3.173   0.380 -0.0717  0.2964  0.0710
  789SOL    HW2 2203   0.154   3.165   0.367 -0.0604 -0.0848  0.1575
  790SOL     OW 2204   1.918   2.824   3.589  0.0874  0.5258 -0.5379
  790SOL    HW1 2205   1.987   2.883   3.558 -0.6602  0.7550 -1.8245
  790SOL    HW2 2206   1.965   2.747   3.622  1.0289  1.4072  0.2669
  791SOL     OW 2207   1.198   1.483   2.879  0.2018 -0.0311 -0.4063
  791SOL    HW1 2208   1.172   1.501   2.789  2.7902  2.4084 -0.8251
  791SOL    HW2 2209   1.161   1.555   2.930  1.8562  0.7614 -0.2400
  792SOL     OW 2210   2.785   0.582   3.560  0.0524  0.0161  0.4519
  792SOL    HW1 2211   2.862   0.608   3.611 -0.4399 -0.7447  1.6420
  792SOL    HW2 2212   2.768   0.657   3.502  0.6188  0.9516  1.4474
  793SOL     OW 2213   1.505   0.894   3.711  0.4136  0.3495 -0.1640
  793SOL    HW1 2214   1.424   0.928   3.750  0.2352  0.8408 -0.9316
  793SOL    HW2 2215   1.517   0.947   3.632  0.2805 -1.1846 -1.2499
  794SOL     OW 2216   1.086   0.168   3.178 -0.0399  0.2460 -0.4550
  794SOL    HW1 2217   1.101   0.258   3.208  0.4725 -0.0049  0.0560
  794SOL    HW2 2218   1.172   0.137   3.150  1.2712 -2.1155  4.9309
  795SOL     OW 2219   1.961   2.324   2.272 -0.3697  1.4195 -0.2735
  795SOL    HW1 2220   2.037   2.332   2.330  0.2577  1.3031 -1.0691
  795SOL    HW2 2221   1.955   2.409   2.229 -0.4554  1.2962 -0.5029
  796SOL     OW 2222   2.235   1.464   1.441 -0.1371 -0.6834  0.3220
  796SOL    HW1 2223   2.253   1.454   1.534  0.9028  1.1712  0.3878
  796SOL    HW2 2224   2.253   1.378   1.403  1.1134 -1.0322  1.6070
  797SOL     OW 2225   1.682   1.255   0.426  0.1546 -0.5377 -0.6578
  797SOL    HW1 2226   1.754   1.244   0.488  1.0734 -1.3147 -1.8265
  797SOL    HW2 2227   1.674   1.349   0.415  0.0878 -0.3894  0.4951
  798SOL     OW 2228   0.581   0.577   3.553 -0.2442  0.5691  0.3697
  798SOL    HW1 2229   0.543   0.620   3.630  0.6280  0.4587  0.8747
  798SOL    HW2 2230   0.512   0.519   3.522 -0.3457  0.0329  1.5382
  799SOL     OW 2231   1.652   2.340   1.862  0.3562 -0.1208  0.3410
  799SOL    HW1 2232   1.591   2.272   1.834 -1.3937  0.7229  1.8628
  799SOL    HW2 2233   1.645   2.340   1.958  1.3165  1.2905  0.4446
  800SOL     OW 2234   1.641   0.075   2.194 -0.0702  0.4328 -0.5348
  800SOL    HW1 2235   1.694  -0.003   2.208  1.2643  1.3730 -0.4365
  800SOL    HW2 2236   1.575   0.048   2.130 -0.0120 -0.9344 -0.0389
  801SOL     OW 2237   2.708   0.025   1.832  0.0309 -0.1635 -0.8714
  801SOL    HW1 2238   2.715  -0.014   1.745  0.3168  0.8038 -1.2947
  801SOL    HW2 2239   2.796   0.017   1.868 -0.2688 -1.2410 -0.3373
  802SOL     OW 2240   2.786   2.596   3.310 -0.5998  0.2098  0.7757
  802SOL    HW1 2241   2.836   2.569   3.232 -1.8021  1.7759 -0.6076
  802SOL    HW2 2242   2.845   2.656   3.356 -1.0706  1.9894 -0.8063
  803SOL     OW 2243   2.112   2.469   4.070  0.0491 -0.5083 -0.0374
  803SOL    HW1 2244   2.106   2.554   4.113 -0.9420 -0.3881 -0.4133
  803SOL    HW2 2245   2.155   2.487   3.986 -0.7926 -0.1916 -0.4199
  804SOL     OW 2246   0.383   0.637   1.690  0.5404  1.0015 -0.2405
  804SOL    HW1 2247   0.470   0.659   1.725  1.3088 -0.0883 -1.3934
  804SOL    HW2 2248   0.389   0.657   1.597 -0.8871  2.1132 -0.1229
  805SOL     OW 2249   3.190   1.135   0.705  0.0018 -0.4692  0.1831
  805SOL    HW1 2250   3.269   1.185   0.725 -0.6765  0.5433  0.4459
  805SOL    HW2 2251   3.218   1.069   0.643  0.7876  0.8306 -0.9102
  806SOL     OW 2252   3.558   1.793   1.260  0.7971  0.4411 -0.0874
  806SOL    HW1 2253   3.604   1.875   1.240  0.1491  0.4755 -1.6370
  806SOL    HW2 2254   3.623   1.725   1.242  1.0451  0.5835  0.2661
  807SOL     OW 2255   3.493   1.191   0.770  0.3362  0.2049 -0.3419
  807SOL    HW1 2256   3.498   1.119   0.707  0.9930  0.8010 -0.9905
  807SOL    HW2 2257   3.585   1.209   0.792  0.3692  2.2669 -1.8544
  808SOL     OW 2258   0.844   1.536   3.383  0.2574 -0.2070 -0.7754
  808SOL    HW1 2259   0.839   1.620   3.430 -1.1968  0.1360 -1.5065
  808SOL    HW2 2260   0.756   1.499   3.389  0.5884 -1.1492 -1.4553
  809SOL     OW 2261   3.979   3.727   2.389 -0.1487 -0.0765  0.1070
  809SOL    HW1 2262   3.928   3.802   2.418 -0.2692 -0.5657  1.2251
  809SOL    HW2 2263   4.013   3.753   2.303 -1.3807  0.6767 -0.1914
  810SOL     OW 2264   2.622   0.729   3.887 -0.1647 -0.4183  0.6628
  810SOL    HW1 2265   2.587   0.666   3.950 -0.1083 -1.8862 -0.7170
  810SOL    HW2 2266   2.594   0.696   3.802  0.2812  1.1810 -0.1484
  811SOL     OW 2267   1.967   0.755   2.634 -0.0141  0.2346 -0.1808
  811SOL    HW1 2268   1.963   0.733   2.727  0.4075 -1.1823 -0.4729
  811SOL    HW2 2269   2.019   0.684   2.594  0.5723  1.2753 -1.3602
  812SOL     OW 2270   2.239   2.736   2.989  0.0016 -0.6832  0.3603
  812SOL    HW1 2271   2.158   2.758   2.942  0.8043  0.7700 -0.3956
  812SOL    HW2 2272   2.281   2.670   2.935 -0.3989 -1.0402  0.4762
  813SOL     OW 2273   1.000   1.221   1.512 -0.7059 -0.5465 -0.9140
  813SOL    HW1 2274   0.962   1.237   1.425 -2.2068 -1.3082 -0.4379
  813SOL    HW2 2275   1.019   1.308   1.546 -3.0535 -0.0049 -0.7790
  814SOL     OW 2276   3.683   1.976   0.380 -0.4293  0.4460  0.1828
  814SOL    HW1 2277   3.742   1.936   0.316 -0.0014 -0.4053  1.0824
  814SOL    HW2 2278   3.596   1.953   0.350 -0.3170  1.6732 -1.1365
  815SOL     OW 2279   3.167   3.742   0.775  0.0047 -0.3294 -0.6603
  815SOL    HW1 2280   3.236   3.799   0.809 -1.0698  0.4957  0.2100
  815SOL    HW2 2281   3.205   3.702   0.697  1.5874 -0.1756  0.0005
  816SOL     OW 2282   3.304   4.030   1.571 -0.3234 -0.5756  0.0044
  816SOL    HW1 2283   3.321   4.124   1.583  0.5335 -0.8749  1.0233
  816SOL    HW2 2284   3.270   4.001   1.656 -1.2647 -1.0600 -0.5252
  817SOL     OW 2285   2.335   3.942   1.724  0.3602  0.1046  0.1458
  817SOL    HW1 2286   2.262   3.903   1.676  0.7039  0.4033 -0.6475
  817SOL    HW2 2287   2.370   4.008   1.664  0.6360  0.6779  0.9276
  818SOL     OW 2288   3.344   1.152   4.017  0.4472  0.8087 -0.1767
  818SOL    HW1 2289   3.367   1.187   3.931  1.2454  0.1627 -0.2320
  818SOL    HW2 2290   3.292   1.222   4.058  0.1526  1.1632 -1.1310
  819SOL     OW 2291   3.959   1.645   3.273 -0.4418 -0.3157  0.1013
  819SOL    HW1 2292   4.032   1.685   3.321 -0.9115  1.1775 -0.3466
  819SOL    HW2 2293   3.960   1.553   3.299 -0.1376  0.2469  2.2889
  820SOL     OW 2294   0.261   1.071   1.396  0.2649 -0.1869 -0.3246
  820SOL    HW1 2295   0.244   1.047   1.487 -1.3446  2.5002  0.1839
  820SOL    HW2 2296   0.214   1.006   1.345  0.1555 -1.0048  0.7846
  821SOL     OW 2297   1.408   1.523   1.747 -0.1137 -0.6214  0.3379
  821SOL    HW1 2298   1.399   1.432   1.777  0.2697 -1.1752 -1.1076
  821SOL    HW2 2299   1.500   1.531   1.724 -0.6579 -0.8276 -2.2801
  822SOL     OW 2300   1.178   3.181   2.379 -0.0718  0.2973 -0.2583
  822SOL    HW1 2301   1.157   3.265   2.421  2.1087  0.2595  1.0591
  822SOL    HW2 2302   1.183   3.119   2.452  0.2341 -0.5727 -1.0096
  823SOL     OW 2303   2.300   2.697   3.244 -0.4679 -0.3326  0.6684
  823SOL    HW1 2304   2.270   2.717   3.156  1.6785  0.4103  0.0324
  823SOL    HW2 2305   2.312   2.783   3.285  1.3391 -0.5209  0.6260
  824SOL     OW 2306   4.067   0.695   3.233 -0.1376 -0.0720  0.5308
  824SOL    HW1 2307   4.126   0.630   3.195 -0.0212 -0.6953  1.7303
  824SOL    HW2 2308   4.066   0.767   3.169  1.9582 -0.0274  0.4727
  825SOL     OW 2309   4.051   2.784   0.731  0.0823  0.2652 -0.6376
  825SOL    HW1 2310   4.055   2.708   0.672 -0.2832  0.3235 -0.7420
  825SOL    HW2 2311   4.109   2.849   0.691 -0.4556  0.4367 -1.0967
  826SOL     OW 2312   2.748   3.488   3.780 -0.0759 -0.3086  0.1056
  826SOL    HW1 2313   2.741   3.493   3.875 -3.0522 -1.3460  0.0464
  826SOL    HW2 2314   2.715   3.572   3.749 -0.3183 -0.4531 -0.0293
  827SOL     OW 2315   1.646   0.436   1.694 -0.2375 -0.2006 -0.0072
  827SOL    HW1 2316   1.663   0.383   1.772 -0.7565 -0.1973  0.1089
  827SOL    HW2 2317   1.689   0.519   1.712 -1.3544  0.2220  0.7860
  828SOL     OW 2318   0.345   3.388   1.309 -0.1273 -0.3546 -0.1719
  828SOL    HW1 2319   0.290   3.457   1.271 -1.2438 -0.8351  0.5270
  828SOL    HW2 2320   0.430   3.400   1.266 -0.3631  1.2766 -0.2691
  829SOL     OW 2321   3.037   0.605   2.014  0.0940  0.0964 -0.2157
  829SOL    HW1 2322   3.044   0.518   2.053  3.2335  0.8378  1.1915
  829SOL    HW2 2323   3.087   0.599   1.932  0.2702  0.5394 -0.1466
  830SOL     OW 2324   3.068   1.234   0.937 -0.4721  0.5275 -0.5441
  830SOL    HW1 2325   3.064   1.326   0.910  0.1832  0.8726  0.4580
  830SOL    HW2 2326   3.084   1.185   0.856 -4.2939  0.8858 -1.7054
  831SOL     OW 2327   2.777   0.924   2.840 -0.2501  0.5652 -0.2390
  831SOL    HW1 2328   2.737   0.943   2.755 -0.7002  0.2859 -0.0945
  831SOL    HW2 2329   2.844   0.991   2.851 -0.0349  0.4695 -0.9198
  832SOL     OW 2330   2.501   3.541   2.942 -0.0573 -0.0944  0.4825
  832SOL    HW1 2331   2.409   3.549   2.918 -0.6158 -1.4090  1.9981
  832SOL    HW2 2332   2.526   3.629   2.971 -1.3226 -0.0524  1.5503
  833SOL     OW 2333   2.849   1.831   1.503  0.4551  0.6059 -0.2719
  833SOL    HW1 2334   2.849   1.839   1.598 -0.2869 -0.3297 -0.1794
  833SOL    HW2 2335   2.763   1.861   1.475 -0.1586 -1.1703 -0.4260
  834SOL     OW 2336   2.460   0.531   4.069 -0.4422 -0.5501 -0.0702
  834SOL    HW1 2337   2.386   0.589   4.086 -0.1988  0.5848 -2.4643
  834SOL    HW2 2338   2.422   0.458   4.021 -0.0673  0.0719 -1.4099
  835SOL     OW 2339   3.918   0.142   2.662 -0.3360 -0.0614  0.2232
  835SOL    HW1 2340   3.885   0.183   2.582  1.0274 -1.9790 -1.4298
  835SOL    HW2 2341   3.842   0.135   2.720 -1.2254  1.9058 -0.6456
  836SOL     OW 2342   0.139   1.056   0.289  0.3785  0.2197  0.5283
  836SOL    HW1 2343   0.135   1.091   0.200 -1.1422 -1.0543  0.0398
  836SOL    HW2 2344   0.055   1.080   0.328 -0.7111 -2.6692  0.1858
  837SOL     OW 2345   3.347   0.693   2.528 -0.2081 -0.5506  0.4925
  837SOL    HW1 2346   3.352   0.602   2.556 -0.4029 -0.4336  0.9054
  837SOL    HW2 2347   3.310   0.740   2.603 -0.5127 -0.2008  0.1318
  838SOL     OW 2348   3.294   1.933   1.145 -0.6392  0.1988 -0.5966
  838SOL    HW1 2349   3.317   1.865   1.081 -2.0452 -0.1719 -0.7307
  838SOL    HW2 2350   3.252   1.886   1.216  0.1461  0.7151  0.2271
  839SOL     OW 2351   0.953   1.029   3.958  0.9254 -0.1941 -0.2102
  839SOL    HW1 2352   0.932   1.011   4.050 -0.7256 -3.8753 -1.1119
  839SOL    HW2 2353   1.043   1.060   3.960  0.4679  1.3129  2.7206
  840SOL     OW 2354   2.391   2.504   1.349 -0.1475 -0.3817 -0.0979
  840SOL    HW1 2355   2.366   2.575   1.289  0.2195  1.4535  1.8181
  840SOL    HW2 2356   2.310   2.456   1.364 -0.2741 -0.8420 -1.9146
  841SOL     OW 2357   3.388   2.985   3.460  0.3085  0.5928  0.0640
  841SOL    HW1 2358   3.452   3.052   3.434  0.2946  1.0462  1.1454
  841SOL    HW2 2359   3.310   3.006   3.408  0.6045  0.8512 -0.2842
  842SOL     OW 2360   2.952   0.302   1.723 -0.0331 -0.0067 -0.5452
  842SOL    HW1 2361   2.951   0.228   1.663  0.8580  0.3658 -1.0302
  842SOL    HW2 2362   2.983   0.376   1.671  1.6425  0.1338  0.5765
  843SOL     OW 2363   2.768   3.990   3.100 -0.0500 -0.1723  0.4279
  843SOL    HW1 2364   2.820   4.049   3.153  1.1518  0.3513 -1.2577
  843SOL    HW2 2365   2.718   4.047   3.041 -0.9702 -0.7925  0.6130
  844SOL     OW 2366   1.664   3.261   4.049 -0.3461 -0.3229 -0.0855
  844SOL    HW1 2367   1.570   3.281   4.055 -0.0750  0.9712  0.1495
  844SOL    HW2 2368   1.707   3.344   4.067  0.8537 -0.8511 -0.4324
  845SOL     OW 2369   3.500   0.959   0.636 -0.3143  0.0752  0.1747
  845SOL    HW1 2370   3.417   0.919   0.610 -0.2747 -1.8356  2.6184
  845SOL    HW2 2371   3.556   0.885   0.661  1.6160  1.4035  0.0267
  846SOL     OW 2372   2.987   1.765   0.490  0.0509  0.2652  0.0312
  846SOL    HW1 2373   2.905   1.716   0.493  1.1946 -1.7363  1.2187
  846SOL    HW2 2374   2.999   1.796   0.580  1.7947 -1.6970  0.5409
  847SOL     OW 2375   3.435   0.566   0.938  0.6999  0.4685 -0.2692
  847SOL    HW1 2376   3.391   0.482   0.927  0.2845  0.5992  0.3639
  847SOL    HW2 2377   3.528   0.546   0.936  0.7038  0.3270 -2.9582
  848SOL     OW 2378   2.178   1.627   2.120 -0.4795  0.7918 -0.2845
  848SOL    HW1 2379   2.253   1.582   2.081  0.8806  1.5780  1.2898
  848SOL    HW2 2380   2.120   1.557   2.148  0.2923  0.1068 -0.3693
  849SOL     OW 2381   0.402   1.169   3.916  0.4863  0.6768 -0.5906
  849SOL    HW1 2382   0.470   1.116   3.873  0.5879  1.3343 -1.2596
  849SOL    HW2 2383   0.379   1.236   3.852  0.1351  1.2589  0.1200
  850SOL     OW 2384   0.364   3.841   3.419  0.3977  0.7083  0.0370
  850SOL    HW1 2385   0.355   3.804   3.507  2.2480 -2.2033 -0.8905
  850SOL    HW2 2386   0.274   3.862   3.394 -0.6369 -1.7342  1.3109
  851SOL     OW 2387   0.768   1.788   3.960  0.2797  0.2640 -0.5237
  851SOL    HW1 2388   0.742   1.864   4.013 -0.6572 -0.0689 -0.4910
  851SOL    HW2 2389   0.804   1.826   3.880  2.4884  0.8107  0.6331
  852SOL     OW 2390   2.505   0.261   0.662  0.2846 -0.1090  0.2535
  852SOL    HW1 2391   2.445   0.328   0.630  2.7274  1.0729 -2.2398
  852SOL    HW2 2392   2.461   0.178   0.641 -0.3856  0.7067 -1.8974
  853SOL     OW 2393   2.466   3.289   3.563 -0.5733  0.1408  0.2100
  853SOL    HW1 2394   2.535   3.233   3.527  0.6222  2.1088 -0.7750
  853SOL    HW2 2395   2.409   3.308   3.489 -0.8092  0.4299  0.4619
  854SOL     OW 2396   0.200   2.594   3.128 -0.0304  0.2905  0.3701
  854SOL    HW1 2397   0.255   2.585   3.049 -0.7653 -1.6578  0.0232
  854SOL    HW2 2398   0.201   2.507   3.167 -4.0180 -0.2975 -0.4679
  855SOL     OW 2399   2.227   1.893   2.072 -0.1786 -0.3285  0.5489
  855SOL    HW1 2400   2.209   1.915   2.163  0.3176 -0.0992  0.5949
  855SOL    HW2 2401   2.196   1.803   2.062  1.2941 -0.9713  1.4078
  856SOL     OW 2402   3.026   3.666   0.290 -0.3126 -0.2881 -0.3667
  856SOL    HW1 2403   3.038   3.582   0.334  1.0090  0.0105 -0.1167
  856SOL    HW2 2404   3.040   3.731   0.358  2.6949  0.2144 -1.3286
  857SOL     OW 2405   2.928   0.431   3.826 -0.2648 -0.0852  0.4122
  857SOL    HW1 2406   2.962   0.502   3.772  0.4813 -0.4005  0.4485
  857SOL    HW2 2407   2.833   0.440   3.823 -0.1672  1.3488  1.0104
  858SOL     OW 2408   0.923   3.424   1.637 -0.4058  0.0844  0.2861
  858SOL    HW1 2409   0.999   3.438   1.581 -1.8289 -0.7257 -1.9571
  858SOL    HW2 2410   0.938   3.481   1.713  2.8644 -0.7653  0.4295
  859SOL     OW 2411   0.385   3.821   2.831 -0.0812  0.2947  0.1612
  859SOL    HW1 2412   0.289   3.822   2.836 -0.1634 -2.9814  1.5914
  859SOL    HW2 2413   0.404   3.794   2.741 -0.7057 -2.3460  0.7362
  860SOL     OW 2414   0.641   2.828   2.186  0.0953  0.3742  0.0608
  860SOL    HW1 2415   0.549   2.846   2.203 -0.2062 -1.4713  0.5685
  860SOL    HW2 2416   0.680   2.914   2.169 -1.4384  1.3126  1.1363
  861SOL     OW 2417   0.092   1.577   0.266 -0.0654  0.1741  0.5618
  861SOL    HW1 2418   0.014   1.521   0.260  0.9709 -1.2938  0.0400
  861SOL    HW2 2419   0.139   1.560   0.184  1.3771  0.1389  1.3704
  862SOL     OW 2420   2.855   2.147   1.879  0.3750 -0.1492 -0.4679
  862SOL    HW1 2421   2.766   2.181   1.891  0.2156 -0.6721 -0.1816
  862SOL    HW2 2422   2.887   2.193   1.801 -0.6317 -0.9319 -1.3806
  863SOL     OW 2423   2.434   0.661   1.769 -0.2712  0.5786  0.2631
  863SOL    HW1 2424   2.443   0.747   1.728 -1.4371  0.1509 -0.9297
  863SOL    HW2 2425   2.525   0.632   1.782  0.1342  1.5091 -0.3269
  864SOL     OW 2426   1.760   2.847   0.500  0.3329 -0.5303 -0.3452
  864SOL    HW1 2427   1.792   2.926   0.457  2.1535 -1.5305 -0.9266
  864SOL    HW2 2428   1.763   2.780   0.432 -0.1587 -1.3599  0.4330
  865SOL     OW 2429   0.906   0.314   0.948 -0.1482  0.7783 -0.8177
  865SOL    HW1 2430   1.000   0.300   0.946 -0.3043 -0.3503 -1.2566
  865SOL    HW2 2431   0.871   0.248   0.888 -1.1436  1.8344 -1.4354
  866SOL     OW 2432   4.036   2.764   0.039 -0.3940 -0.3339 -0.8452
  866SOL    HW1 2433   3.965   2.700   0.044 -0.1522 -0.5759 -0.4997
  866SOL    HW2 2434   3.992   2.846   0.018 -0.6593 -0.6899 -1.7077
  867SOL     OW 2435   1.689   4.047   1.704  0.6924  0.0549 -0.6315
  867SOL    HW1 2436   1.642   3.991   1.642  0.8861 -0.0293 -0.7033
  867SOL    HW2 2437   1.759   3.991   1.737 -0.9365 -0.8095  1.6498
  868SOL     OW 2438   2.614   0.667   2.476 -0.0287  0.3622 -0.2417
  868SOL    HW1 2439   2.651   0.668   2.564  0.0840  0.8652 -0.2894
  868SOL    HW2 2440   2.542   0.604   2.481 -1.2100  1.6964  0.7120
  869SOL     OW 2441   1.117   3.269   1.883 -0.0445  0.0193 -0.0726
  869SOL    HW1 2442   1.103   3.176   1.871 -1.1355  0.1508  0.1029
  869SOL    HW2 2443   1.085   3.287   1.972  0.3877  0.5215 -0.0092
  870SOL     OW 2444   3.471   0.763   1.317  0.5173 -0.0553 -0.1906
  870SOL    HW1 2445   3.461   0.668   1.313 -2.6749  0.2041 -0.6036
  870SOL    HW2 2446   3.439   0.794   1.233 -0.2680  1.5007  0.6463
  871SOL     OW 2447   0.914   2.408   3.663 -0.2198 -0.0103 -0.4154
  871SOL    HW1 2448   0.912   2.491   3.615 -2.0044  0.0528 -0.2938
  871SOL    HW2 2449   0.938   2.343   3.598 -1.9229  0.1719 -1.3034
  872SOL     OW 2450   2.326   0.915   3.164 -0.3592 -0.3543  0.4761
  872SOL    HW1 2451   2.390   0.846   3.142 -1.3008 -1.6255  1.5944
  872SOL    HW2 2452   2.270   0.920   3.086 -0.4513 -1.0543  0.4895
  873SOL     OW 2453   2.252   0.776   3.490  0.1879  0.0516 -0.2471
  873SOL    HW1 2454   2.342   0.762   3.461  0.2021 -0.9733  0.2766
  873SOL    HW2 2455   2.257   0.775   3.586 -0.6103 -1.6110 -0.1979
  874SOL     OW 2456   3.570   1.754   2.842  0.4472 -0.2627 -0.7283
  874SOL    HW1 2457   3.630   1.804   2.898  0.7540 -0.9191 -0.4569
  874SOL    HW2 2458   3.511   1.819   2.805  0.5397  0.2424  0.0001
  875SOL     OW 2459   2.208   0.732   2.934  0.2038 -0.6291 -0.7564
  875SOL    HW1 2460   2.194   0.787   2.857  1.7939  2.0258  0.6826
  875SOL    HW2 2461   2.135   0.754   2.992  0.4314 -0.5973 -0.4799
  876SOL     OW 2462   0.815   2.207   1.361  0.1855  0.2852 -0.0907
  876SOL    HW1 2463   0.859   2.144   1.418  0.0844  0.5876  0.3272
  876SOL    HW2 2464   0.867   2.208   1.281 -0.7279 -1.5500 -0.7501
  877SOL     OW 2465   2.121   0.090   0.770  0.0220  0.1342 -0.0933
  877SOL    HW1 2466   2.047   0.051   0.724  0.1714 -0.4856  0.1835
  877SOL    HW2 2467   2.193   0.087   0.707 -0.4033  1.6055 -0.7077
  878SOL     OW 2468   3.612   0.898   2.779 -0.4672  0.2110 -0.0462
  878SOL    HW1 2469   3.647   0.892   2.690  1.3251 -0.1371  0.6254
  878SOL    HW2 2470   3.609   0.992   2.797 -1.5182  0.3201 -0.6984
  879SOL     OW 2471   1.125   2.399   2.066  0.7172 -0.1077  0.4760
  879SOL    HW1 2472   1.077   2.429   1.988  2.5977  0.1842 -0.6526
  879SOL    HW2 2473   1.195   2.343   2.030  1.8707  0.3570  1.9027
  880SOL     OW 2474   1.455   0.986   1.925 -0.1011 -0.4914 -0.2301
  880SOL    HW1 2475   1.462   0.891   1.913 -0.3428 -0.4256 -0.9685
  880SOL    HW2 2476   1.542   1.020   1.907 -0.5679 -0.3455 -2.4565
  881SOL     OW 2477   3.089   1.026   3.625 -0.5069  0.3085 -0.1343
  881SOL    HW1 2478   3.168   0.981   3.655 -0.9837 -0.8242 -0.5205
  881SOL    HW2 2479   3.120   1.092   3.564  0.2544  0.8577  0.8290
  882SOL     OW 2480   0.685   3.791   2.718 -0.4324  0.0837  0.4046
  882SOL    HW1 2481   0.610   3.740   2.689 -0.5896 -0.7537  2.1629
  882SOL    HW2 2482   0.668   3.809   2.810  1.8862 -0.8332  1.0937
  883SOL     OW 2483   2.113   2.992   3.488  0.1932 -0.3586 -0.1551
  883SOL    HW1 2484   2.095   3.086   3.487  0.2007 -0.3566 -0.1031
  883SOL    HW2 2485   2.190   2.982   3.432 -0.6785 -0.5174 -1.3686
  884SOL     OW 2486   0.699   3.950   0.459 -0.1895 -0.4903 -0.3663
  884SOL    HW1 2487   0.637   3.953   0.386  0.3675 -0.8249 -0.8507
  884SOL    HW2 2488   0.781   3.983   0.423  0.1868 -0.9953  0.0159
  885SOL     OW 2489   2.101   3.221   0.026  0.3450  0.4404  0.2582
  885SOL    HW1 2490   2.088   3.309   0.062 -1.0154  1.2730 -2.0114
  885SOL    HW2 2491   2.194   3.218   0.001  0.5627  0.9508  0.9899
  886SOL     OW 2492   3.890   3.830   2.808 -0.8086  0.6345  0.0779
  886SOL    HW1 2493   3.885   3.899   2.874  2.5633  1.9022 -0.7788
  886SOL    HW2 2494   3.867   3.874   2.726  2.2845  1.1797 -0.6266
  887SOL     OW 2495   2.147   3.799   3.629  0.1995 -0.3580 -0.3682
  887SOL    HW1 2496   2.102   3.862   3.572 -1.0356 -0.6099  0.2891
  887SOL    HW2 2497   2.148   3.841   3.715 -0.1849 -1.0018 -0.0381
  888SOL     OW 2498   0.346   1.562   1.542  0.2178  0.3300  0.3455
  888SOL    HW1 2499   0.420   1.503   1.553 -0.9275 -0.8183  2.3131
  888SOL    HW2 2500   0.365   1.635   1.601  0.2897  0.5916  0.0059
  889SOL     OW 2501   2.819   0.524   2.260 -0.3206  0.3215 -0.2630
  889SOL    HW1 2502   2.744   0.498   2.206 -1.4125  0.5083  1.0885
  889SOL    HW2 2503   2.779   0.567   2.336  1.1054 -0.5544  1.0310
  890SOL     OW 2504   1.060   0.178   1.698  0.6207 -0.1659 -0.0609
  890SOL    HW1 2505   1.013   0.195   1.780  1.5147  2.9923 -0.0482
  890SOL    HW2 2506   0.998   0.205   1.630  0.0906 -2.2587 -0.4836
  891SOL     OW 2507   1.080   0.963   1.183 -0.0499 -0.0558 -0.0604
  891SOL    HW1 2508   0.999   0.913   1.194  0.1866 -0.3783  0.2174
  891SOL    HW2 2509   1.133   0.939   1.259  1.1398 -1.4047 -1.2770
  892SOL     OW 2510   2.362   0.682   3.750 -0.2494 -0.7102  0.0833
  892SOL    HW1 2511   2.373   0.776   3.762 -1.4103 -0.3918 -1.1707
  892SOL    HW2 2512   2.301   0.656   3.818 -0.6513 -0.3794 -0.1466
  893SOL     OW 2513   2.165   3.293   2.421 -0.0743 -0.0451  0.0232
  893SOL    HW1 2514   2.091   3.315   2.478 -0.9936  0.8508 -1.4186
  893SOL    HW2 2515   2.158   3.199   2.407 -2.6940  0.3344 -2.2352
  894SOL     OW 2516   1.295   2.139   0.214 -0.0680 -0.1128  0.1982
  894SOL    HW1 2517   1.369   2.107   0.265  0.0663 -0.2798 -0.1012
  894SOL    HW2 2518   1.226   2.075   0.229  0.3196 -0.7710 -0.7054
  895SOL     OW 2519   0.174   0.544   1.324  0.4072 -0.0500 -0.0125
  895SOL    HW1 2520   0.085   0.569   1.349  0.3806  0.5402 -0.6438
  895SOL    HW2 2521   0.165   0.513   1.234  0.9415  0.7151 -0.3413
  896SOL     OW 2522   0.242   3.759   2.344  0.2494  0.0693 -0.2079
  896SOL    HW1 2523   0.273   3.669   2.333 -3.8736 -1.4931 -0.9196
  896SOL    HW2 2524   0.253   3.777   2.437  0.1344 -1.6476  0.1789
  897SOL     OW 2525   3.577   3.169   0.359 -0.3388  0.0334 -0.1024
  897SOL    HW1 2526   3.494   3.143   0.320 -0.6746  0.3496  0.3859
  897SOL    HW2 2527   3.635   3.185   0.284  0.0162 -2.4468 -0.4305
  898SOL     OW 2528   1.292   2.942   2.512 -0.7134  0.3088  0.0492
  898SOL    HW1 2529   1.332   2.933   2.598 -0.4420 -0.2205 -0.1287
  898SOL    HW2 2530   1.349   3.004   2.466 -1.8351  2.0184  0.8202
  899SOL     OW 2531   0.396   1.240   3.309 -0.1805 -0.3261 -0.5511
  899SOL    HW1 2532   0.477   1.201   3.342  0.4847 -0.4898 -2.2986
  899SOL    HW2 2533   0.421   1.282   3.227 -1.8117 -0.0852 -0.9612
  900SOL     OW 2534   2.473   2.083   3.578 -0.1770  0.2966  0.0970
  900SOL    HW1 2535   2.434   2.086   3.491 -3.4873  0.6708  1.4616
  900SOL    HW2 2536   2.460   1.993   3.607 -0.1671  0.4736  0.6580
  901SOL     OW 2537   0.836   2.607   2.687 -0.7153 -0.4150  0.1408
  901SOL    HW1 2538   0.808   2.554   2.762  0.4934 -1.8319 -0.3550
  901SOL    HW2 2539   0.887   2.547   2.633  0.8642  1.3141 -0.3921
  902SOL     OW 2540   2.525   2.699   1.823  0.0517  0.1589 -0.6171
  902SOL    HW1 2541   2.492   2.639   1.891 -0.1999  2.2581  1.2397
  902SOL    HW2 2542   2.446   2.734   1.783  0.0937  1.2864  0.2383
  903SOL     OW 2543   1.936   2.088   2.627  0.0059 -0.0309 -0.7582
  903SOL    HW1 2544   1.982   2.014   2.588  1.4445  1.0359 -1.1745
  903SOL    HW2 2545   2.004   2.153   2.644 -0.3848 -0.5333  4.0191
  904SOL     OW 2546   0.757   2.968   0.944  0.1384  0.5483 -0.0094
  904SOL    HW1 2547   0.788   3.040   0.889  1.7273 -0.5481 -0.5964
  904SOL    HW2 2548   0.663   2.963   0.925  0.5669  0.4505 -2.3376
  905SOL     OW 2549   2.775   2.665   1.689 -0.4608  0.1915  0.5982
  905SOL    HW1 2550   2.795   2.752   1.655  0.5661  0.2014  1.2008
  905SOL    HW2 2551   2.695   2.677   1.740 -1.9627  0.2101 -1.5765
  906SOL     OW 2552   0.814   0.975   2.204 -0.1059  0.9357 -0.3124
  906SOL    HW1 2553   0.831   1.044   2.269  0.0662 -0.2604  0.9579
  906SOL    HW2 2554   0.773   0.905   2.254 -1.1964  0.4835 -1.7697
  907SOL     OW 2555   3.671   0.687   2.531  0.5925 -0.0482 -0.0278
  907SOL    HW1 2556   3.623   0.614   2.492  1.4714 -0.6286 -0.0479
  907SOL    HW2 2557   3.656   0.678   2.625 -0.6022  0.6940 -0.1239
  908SOL     OW 2558   2.252   2.448   0.359 -0.0347 -0.4315  0.3778
  908SOL    HW1 2559   2.327   2.397   0.330  0.5454  0.4659  0.2480
  908SOL    HW2 2560   2.270   2.537   0.329 -2.3113 -0.5956 -1.8126
  909SOL     OW 2561   3.634   2.624   2.277  0.4287 -0.2449  0.0685
  909SOL    HW1 2562   3.569   2.560   2.247  0.6368 -0.3282 -0.2035
  909SOL    HW2 2563   3.602   2.651   2.363  0.9082 -1.5333  0.6802
  910SOL     OW 2564   0.960   0.446   0.506  0.3398 -0.2733 -0.1287
  910SOL    HW1 2565   0.941   0.445   0.600  0.0982 -1.8703 -0.1682
  910SOL    HW2 2566   0.984   0.356   0.485  2.1708  0.4119 -1.2595
  911SOL     OW 2567   0.059   2.434   0.158 -0.0219 -0.3313  0.2599
  911SOL    HW1 2568  -0.009   2.418   0.092 -1.0131 -2.2166  1.6346
  911SOL    HW2 2569   0.141   2.424   0.111 -0.7006 -1.5647 -0.7336
  912SOL     OW 2570   0.218   3.160   1.092 -0.0826  0.3847  0.3553
  912SOL    HW1 2571   0.286   3.195   1.034  0.1960  0.2458  0.5988
  912SOL    HW2 2572   0.204   3.071   1.061 -3.3327  1.6873 -2.6265
  913SOL     OW 2573   3.053   0.060   3.557  0.2478 -0.4090 -0.2284
  913SOL    HW1 2574   3.121   0.096   3.614  1.3906  1.5062 -2.6033
  913SOL    HW2 2575   2.971   0.094   3.592  0.7817 -0.3194  0.9815
  914SOL     OW 2576   2.785   2.512   2.189 -0.3235  0.4131  0.2610
  914SOL    HW1 2577   2.870   2.497   2.231  0.0213 -2.7377 -1.3192
  914SOL    HW2 2578   2.805   2.560   2.109 -0.4762  2.4433  1.3763
  915SOL     OW 2579   0.853   3.086   0.712  0.0754  0.2850 -0.0001
  915SOL    HW1 2580   0.933   3.137   0.725  1.4292 -2.2875  3.3236
  915SOL    HW2 2581   0.840   3.086   0.617  3.0446  2.2092 -0.5585
  916SOL     OW 2582   4.013   3.493   1.678  0.3758  0.2988 -0.5823
  916SOL    HW1 2583   4.025   3.586   1.662  0.5191  0.1903 -1.1371
  916SOL    HW2 2584   3.971   3.460   1.598  1.3084 -0.3043 -0.8414
  917SOL     OW 2585   0.105   1.425   2.154 -0.0542  0.2985  0.3804
  917SOL    HW1 2586   0.060   1.499   2.113  0.8371  0.3826 -0.4925
  917SOL    HW2 2587   0.082   1.350   2.101 -0.6823 -0.0074  1.0655
  918SOL     OW 2588   1.329   0.343   0.478 -0.4096 -0.0094 -0.2590
  918SOL    HW1 2589   1.396   0.277   0.495 -0.0955  0.9225  2.5830
  918SOL    HW2 2590   1.372   0.406   0.420  0.8554  0.0548  0.7142
  919SOL     OW 2591   4.026   2.020   1.026  0.0925 -0.4361  0.0752
  919SOL    HW1 2592   4.117   2.014   0.996 -0.2570  0.9312 -1.2420
  919SOL    HW2 2593   3.975   1.981   0.955 -0.4008 -0.7904  0.6121
  920SOL     OW 2594   2.374   1.408   2.849 -0.3002  0.1435  0.2171
  920SOL    HW1 2595   2.367   1.353   2.927 -0.5387  1.3468  1.0752
  920SOL    HW2 2596   2.455   1.380   2.807  0.6675  0.5202  1.7380
  921SOL     OW 2597   3.063   2.528   2.125  0.4965 -0.1181 -0.2950
  921SOL    HW1 2598   3.044   2.442   2.088 -0.6874 -1.0164  2.1658
  921SOL    HW2 2599   3.056   2.588   2.051  1.4258 -2.1040 -2.0975
  922SOL     OW 2600   2.160   2.641   1.521  0.5019 -0.4791  0.3936
  922SOL    HW1 2601   2.065   2.645   1.511  0.6382  0.8674 -0.6526
  922SOL    HW2 2602   2.193   2.713   1.467  2.1151 -0.8560  0.8199
  923SOL     OW 2603   3.281   2.426   1.676 -0.2509 -0.0707  0.0826
  923SOL    HW1 2604   3.288   2.519   1.655 -2.8616  0.6875  2.0273
  923SOL    HW2 2605   3.236   2.387   1.601  1.4516  0.0366 -1.0420
  924SOL     OW 2606   3.372   3.068   3.143  0.1498  0.3584  0.1176
  924SOL    HW1 2607   3.423   2.991   3.169  0.3808  0.5978  0.3892
  924SOL    HW2 2608   3.438   3.134   3.121 -0.0370  0.1350 -1.1940
  925SOL     OW 2609   3.156   2.753   0.989 -0.1195  0.4745  0.3676
  925SOL    HW1 2610   3.118   2.704   0.916 -1.0650  1.2134  0.3426
  925SOL    HW2 2611   3.214   2.817   0.946  0.3622  0.0283  0.3464
  926SOL     OW 2612   1.267   2.581   0.311 -0.5614  0.4315 -0.7310
  926SOL    HW1 2613   1.319   2.520   0.259 -0.0161  0.7746 -0.5968
  926SOL    HW2 2614   1.265   2.543   0.399  0.8934  1.2317 -0.3089
  927SOL     OW 2615   0.486   2.313   2.209 -0.3066 -0.0755 -0.5596
  927SOL    HW1 2616   0.480   2.404   2.238 -1.9510  0.1086 -1.3556
  927SOL    HW2 2617   0.442   2.263   2.278  0.0125 -0.1882 -0.4389
  928SOL     OW 2618   1.975   3.533   3.256 -0.3236  0.5643 -0.4822
  928SOL    HW1 2619   1.959   3.561   3.346  3.7906 -3.4012  1.9247
  928SOL    HW2 2620   2.050   3.585   3.227  0.7157 -0.6005 -0.0207
  929SOL     OW 2621   2.544   0.885   2.675 -0.0453 -0.6893  0.6624
  929SOL    HW1 2622   2.551   0.872   2.580 -0.2016 -1.4943  0.7528
  929SOL    HW2 2623   2.454   0.862   2.695  0.5340 -2.5654  1.2984
  930SOL     OW 2624   2.673   3.807   0.812 -1.0360 -0.2884  0.1844
  930SOL    HW1 2625   2.618   3.882   0.833 -1.9199 -1.1566  1.0670
  930SOL    HW2 2626   2.687   3.763   0.896  0.6669 -0.3375 -0.0885
  931SOL     OW 2627   2.634   0.709   1.109  0.6759 -0.1994  0.3194
  931SOL    HW1 2628   2.596   0.660   1.182  0.7616  0.3094  0.7056
  931SOL    HW2 2629   2.721   0.736   1.140  0.1774  1.2040  0.5563
  932SOL     OW 2630   0.644   2.566   1.841  0.1664  0.8303  0.2004
  932SOL    HW1 2631   0.631   2.632   1.773 -0.5571 -0.6505 -1.1893
  932SOL    HW2 2632   0.567   2.575   1.898 -0.5323  0.4439 -0.6580
  933SOL     OW 2633   0.100   0.790   2.342  0.0361 -0.3416  0.2206
  933SOL    HW1 2634   0.171   0.805   2.404 -0.2067  1.1985  0.1683
  933SOL    HW2 2635   0.116   0.701   2.309  1.3117 -0.4354  0.9928
  934SOL     OW 2636   2.530   3.379   1.709  0.0368 -0.2147  0.0044
  934SOL    HW1 2637   2.465   3.400   1.642  1.1945  1.1321 -0.7238
  934SOL    HW2 2638   2.478   3.366   1.789 -1.3476 -1.6694 -1.0546
  935SOL     OW 2639   1.416   0.105   0.861 -0.0898 -0.7608  0.3639
  935SOL    HW1 2640   1.343   0.073   0.809  0.6980  0.0629 -1.3443
  935SOL    HW2 2641   1.390   0.089   0.952 -3.1288  0.9798 -0.0497
  936SOL     OW 2642   3.732   2.967   1.117 -0.3417  0.3845 -0.4017
  936SOL    HW1 2643   3.687   3.050   1.103  0.0755  1.0456  1.8267
  936SOL    HW2 2644   3.822   2.983   1.090 -0.8397 -0.2165 -2.5745
  937SOL     OW 2645   3.872   3.011   3.483  0.2754 -0.1663 -0.0982
  937SOL    HW1 2646   3.910   2.945   3.424  0.6217 -0.7692  0.7769
  937SOL    HW2 2647   3.934   3.018   3.555  1.8055  3.3381 -1.5389
  938SOL     OW 2648   4.064   0.774   1.091 -0.2339 -0.0500  0.2036
  938SOL    HW1 2649   4.109   0.772   1.007  0.7273  0.4964  0.6658
  938SOL    HW2 2650   4.035   0.684   1.105  1.2509 -0.5668  0.1463
  939SOL     OW 2651   3.506   0.815   0.117 -0.7497  0.6369  0.0838
  939SOL    HW1 2652   3.435   0.753   0.099 -0.7420  0.4706  0.6074
  939SOL    HW2 2653   3.493   0.840   0.209 -0.5131  1.1046 -0.0080
  940SOL     OW 2654   1.636   0.334   2.997 -0.3687  0.2677 -0.2639
  940SOL    HW1 2655   1.639   0.288   2.913 -0.0785  0.3099 -0.2791
  940SOL    HW2 2656   1.560   0.391   2.990  0.0746  0.8210 -0.7933
  941SOL     OW 2657   1.534   1.356   1.950 -0.0183  0.0218 -0.5447
  941SOL    HW1 2658   1.439   1.356   1.936 -0.3075  0.7000  1.1052
  941SOL    HW2 2659   1.554   1.266   1.976 -0.3952  0.1110  0.0809
  942SOL     OW 2660   0.919   1.201   3.159  0.4595  0.1542  0.1465
  942SOL    HW1 2661   0.901   1.247   3.241 -0.1576  2.0662 -0.9733
  942SOL    HW2 2662   1.012   1.181   3.162  0.3094 -0.4551  1.5916
  943SOL     OW 2663   1.013   2.742   2.929  0.4493 -1.0710 -0.6057
  943SOL    HW1 2664   0.938   2.683   2.922  0.0859 -0.9105  1.2827
  943SOL    HW2 2665   1.042   2.731   3.019  2.2064 -0.5146 -1.0811
  944SOL     OW 2666   2.633   1.488   0.346 -0.1334 -0.7479  0.4004
  944SOL    HW1 2667   2.632   1.410   0.402 -2.9455 -1.3645 -0.3714
  944SOL    HW2 2668   2.571   1.548   0.388 -0.6504 -0.3525 -0.8978
  945SOL     OW 2669   1.037   0.334   2.352 -0.1951  0.8573  0.1919
  945SOL    HW1 2670   1.081   0.351   2.435 -0.1787 -1.3682  0.7070
  945SOL    HW2 2671   0.975   0.406   2.343  0.4005  1.6141  1.7010
  946SOL     OW 2672   1.045   0.732   3.296 -0.6256  0.4269 -0.4198
  946SOL    HW1 2673   1.127   0.781   3.299 -1.8721  2.5979  1.6476
  946SOL    HW2 2674   0.998   0.769   3.221 -0.1452 -0.1693 -1.0340
  947SOL     OW 2675   0.141   2.534   1.338 -0.1502 -0.3191 -0.0009
  947SOL    HW1 2676   0.180   2.461   1.387 -1.6362 -0.4920  0.9876
  947SOL    HW2 2677   0.209   2.602   1.340  0.6046 -1.0534  0.5552
  948SOL     OW 2678   1.435   3.249   1.409 -0.0919 -0.8237 -0.1881
  948SOL    HW1 2679   1.484   3.310   1.464  0.3735 -0.0054 -1.4690
  948SOL    HW2 2680   1.362   3.221   1.463  0.4207 -0.1410  0.8838
  949SOL     OW 2681   0.356   1.766   1.765  0.5404  0.3110  0.0273
  949SOL    HW1 2682   0.335   1.815   1.845  0.8393  1.9600 -0.8622
  949SOL    HW2 2683   0.343   1.829   1.694 -1.2078 -1.5169 -1.4170
  950SOL     OW 2684   3.002   1.759   3.521 -0.0873  0.3587  0.5887
  950SOL    HW1 2685   2.926   1.757   3.579 -0.3676  2.1359  0.3329
  950SOL    HW2 2686   2.972   1.807   3.444  1.3848  1.3825  0.6245
  951SOL     OW 2687   2.229   3.389   0.258 -0.4038 -0.0319  0.2250
  951SOL    HW1 2688   2.276   3.324   0.207 -2.1095 -1.4111  0.3068
  951SOL    HW2 2689   2.278   3.396   0.340  1.3083  0.8265 -0.8255
  952SOL     OW 2690   2.195   1.181   2.906  0.6021  0.0705 -0.5536
  952SOL    HW1 2691   2.214   1.188   2.812  1.9083 -2.6158 -0.5855
  952SOL    HW2 2692   2.281   1.178   2.947  0.0740 -1.0718  0.4998
  953SOL     OW 2693   2.693   3.734   2.647  0.2285 -0.0227 -0.4166
  953SOL    HW1 2694   2.674   3.642   2.627 -0.8233 -0.0692  0.6528
  953SOL    HW2 2695   2.788   3.740   2.643  0.5394 -1.7974  1.8992
  954SOL     OW 2696   0.102   0.891   0.521  0.6695 -0.5245  0.4674
  954SOL    HW1 2697   0.168   0.842   0.471  0.0649 -1.3662  0.4663
  954SOL    HW2 2698   0.113   0.982   0.494  1.4811 -0.7348  0.0777
  955SOL     OW 2699   2.637   2.005   1.176 -0.2425  0.3557  0.0147
  955SOL    HW1 2700   2.677   2.092   1.167  1.5508 -0.5486 -1.5134
  955SOL    HW2 2701   2.569   2.002   1.109 -1.5124  1.1438  1.2142
  956SOL     OW 2702   2.013   0.973   3.502  0.0293  0.2479  0.1901
  956SOL    HW1 2703   1.971   0.893   3.535 -1.1129  0.7463 -0.0102
  956SOL    HW2 2704   2.092   0.942   3.459  0.2590 -0.6594  1.2191
  957SOL     OW 2705   2.374   2.704   4.033  0.0475 -0.3862  0.1946
  957SOL    HW1 2706   2.433   2.714   3.958  0.2231  1.6835  0.5512
  957SOL    HW2 2707   2.367   2.609   4.046  2.2871 -0.7232 -0.6391
  958SOL     OW 2708   0.927   1.357   1.897 -0.0793  0.7389 -0.2312
  958SOL    HW1 2709   0.886   1.344   1.812  3.7077  1.3861 -2.3764
  958SOL    HW2 2710   0.921   1.272   1.940 -1.1718  0.1004 -1.5752
  959SOL     OW 2711   1.097   3.867   1.715 -0.3796  0.4349 -0.1302
  959SOL    HW1 2712   1.084   3.848   1.622  0.3880  0.1238 -0.1789
  959SOL    HW2 2713   1.192   3.875   1.725 -0.4889  1.0126  0.5225
  960SOL     OW 2714   0.405   0.706   0.662  0.4732 -0.2279 -0.1710
  960SOL    HW1 2715   0.481   0.654   0.635 -0.0270  0.4366 -3.1405
  960SOL    HW2 2716   0.335   0.642   0.674  0.6921 -0.5425 -0.5711
  961SOL     OW 2717   1.314   2.919   3.782  0.0992  0.1517  0.1288
  961SOL    HW1 2718   1.298   3.011   3.801  0.2577  0.7747 -2.4447
  961SOL    HW2 2719   1.281   2.906   3.693 -2.4608 -2.9934  1.3334
  962SOL     OW 2720   1.570   1.041   1.604  0.1564  0.1825 -0.0419
  962SOL    HW1 2721   1.482   1.017   1.635 -0.6887  1.9218 -0.9885
  962SOL    HW2 2722   1.555   1.087   1.522  1.9725  0.5488 -0.2029
  963SOL     OW 2723   0.062   2.465   0.686 -0.1402  0.2217  0.1212
  963SOL    HW1 2724   0.136   2.502   0.637 -0.5984 -0.3328 -0.9919
  963SOL    HW2 2725   0.010   2.419   0.621 -2.3443  1.8876  0.5794
  964SOL     OW 2726   2.205   2.411   1.653  0.2170  0.2296  0.5999
  964SOL    HW1 2727   2.206   2.490   1.599  1.1533  0.5226  1.0271
  964SOL    HW2 2728   2.114   2.383   1.653  0.3014 -0.2622 -1.8363
  965SOL     OW 2729   0.393   2.682   1.890 -0.2545  0.0594  0.2441
  965SOL    HW1 2730   0.372   2.753   1.829 -0.2395 -0.2022 -0.0716
  965SOL    HW2 2731   0.311   2.664   1.936 -0.1527  0.5689  0.6322
  966SOL     OW 2732   0.706   2.797   2.491 -0.0357 -0.4506  0.5583
  966SOL    HW1 2733   0.721   2.797   2.397  0.0474 -1.0059  0.5717
  966SOL    HW2 2734   0.740   2.713   2.522 -0.2051 -0.3420  1.0599
  967SOL     OW 2735   2.710   2.171   2.256 -0.1763  0.4039 -0.1840
  967SOL    HW1 2736   2.757   2.199   2.334  1.0434 -0.2586 -0.6536
  967SOL    HW2 2737   2.774   2.120   2.206 -1.6890 -1.4430 -0.3661
  968SOL     OW 2738   3.586   2.403   1.480 -0.0107  0.2938  0.6750
  968SOL    HW1 2739   3.499   2.367   1.460 -0.2450  1.3198 -0.2517
  968SOL    HW2 2740   3.571   2.459   1.555  0.2451 -1.0192  1.7510
  969SOL     OW 2741   2.328   0.896   1.635  0.0104 -0.1455  0.3112
  969SOL    HW1 2742   2.255   0.955   1.651  0.2617  0.0978  0.5862
  969SOL    HW2 2743   2.402   0.954   1.615  0.6981 -0.2519  2.3400
  970SOL     OW 2744   0.570   0.594   1.075 -0.3904 -0.8561  0.8007
  970SOL    HW1 2745   0.581   0.582   1.169  0.0543 -2.1527  0.6102
  970SOL    HW2 2746   0.535   0.510   1.044 -2.1698  0.1224  0.0447
  971SOL     OW 2747   0.731   2.062   2.255  0.1147  0.3853 -0.4028
  971SOL    HW1 2748   0.751   2.143   2.209  0.0867  1.0001  0.6223
  971SOL    HW2 2749   0.791   2.062   2.330 -0.1766 -0.3301 -0.1571
  972SOL     OW 2750   0.245   2.662   0.565 -0.0491 -0.6818 -0.1735
  972SOL    HW1 2751   0.250   2.739   0.621  0.7631 -1.5459  1.0007
  972SOL    HW2 2752   0.163   2.672   0.516  0.2375  1.0900 -0.3327
  973SOL     OW 2753   1.500   2.705   2.998 -0.3027 -0.1715 -0.2112
  973SOL    HW1 2754   1.586   2.748   3.004 -0.7582  0.6030  0.9775
  973SOL    HW2 2755   1.444   2.754   3.058 -1.3271 -1.3005 -0.2172
  974SOL     OW 2756   1.158   1.208   2.925 -0.0953 -0.4507  0.1172
  974SOL    HW1 2757   1.181   1.300   2.919  1.0991 -0.7923 -1.3168
  974SOL    HW2 2758   1.198   1.177   3.006 -0.6423  0.3042  0.6865
  975SOL     OW 2759   3.284   3.015   1.115  0.4387  0.2807 -0.1955
  975SOL    HW1 2760   3.350   3.016   1.184 -1.0427  1.0420  1.2929
  975SOL    HW2 2761   3.329   3.049   1.038  1.7745  0.8408  0.7914
  976SOL     OW 2762   0.037   3.737   2.127 -0.0635  0.6272 -0.1296
  976SOL    HW1 2763   0.111   3.780   2.171 -1.4189  2.9613  0.0526
  976SOL    HW2 2764   0.063   3.734   2.035  0.4362  1.0552 -0.0127
  977SOL     OW 2765   1.007   3.129   3.091  0.3815  0.1085  0.0322
  977SOL    HW1 2766   0.977   3.040   3.110  2.2239 -0.5437  0.0877
  977SOL    HW2 2767   1.049   3.123   3.005  0.5475  0.9101  0.0447
  978SOL     OW 2768   0.006   2.462   3.436 -0.0677  0.2295  0.4585
  978SOL    HW1 2769   0.087   2.511   3.423  0.6382 -0.3151  2.4328
  978SOL    HW2 2770   0.018   2.382   3.384  1.3991 -0.5763  1.9121
  979SOL     OW 2771   2.643   0.376   3.834  0.1117  0.0940 -0.3383
  979SOL    HW1 2772   2.651   0.374   3.930 -0.0377  2.7067 -0.1839
  979SOL    HW2 2773   2.551   0.360   3.817  0.1784 -0.6023 -0.0813
  980SOL     OW 2774   3.640   2.517   3.543  0.1783 -0.0683  0.3133
  980SOL    HW1 2775   3.557   2.540   3.501  1.3494 -0.3003 -2.2990
  980SOL    HW2 2776   3.655   2.426   3.519  2.1954  0.5816 -1.2222
  981SOL     OW 2777   2.089   1.120   1.339 -0.8185  0.0369 -0.0334
  981SOL    HW1 2778   2.118   1.154   1.424 -1.2512  0.8239 -0.1927
  981SOL    HW2 2779   2.073   1.027   1.355 -0.4883  0.0889  0.6412
  982SOL     OW 2780   3.696   3.206   1.601  0.9302  0.0953 -0.2551
  982SOL    HW1 2781   3.643   3.233   1.525 -1.5928 -2.2539  0.4847
  982SOL    HW2 2782   3.771   3.160   1.563 -0.4299 -1.2872 -1.4207
  983SOL     OW 2783   2.598   3.884   3.297 -0.0028  0.1585 -0.5368
  983SOL    HW1 2784   2.650   3.924   3.228  0.3962 -0.9749 -0.9081
  983SOL    HW2 2785   2.632   3.922   3.378  1.4052 -0.5436 -0.7761
  984SOL     OW 2786   0.191   3.738   0.364 -0.2093  0.0738 -0.1726
  984SOL    HW1 2787   0.208   3.644   0.354 -1.5360 -0.3315  1.0487
  984SOL    HW2 2788   0.134   3.759   0.289  0.1487 -0.0654 -0.4903
  985SOL     OW 2789   3.155   1.446   2.159 -0.3520 -0.7006 -0.3789
  985SOL    HW1 2790   3.144   1.380   2.090  1.5478 -0.9810 -0.4711
  985SOL    HW2 2791   3.210   1.513   2.119  0.4252 -0.6625  0.6988
  986SOL     OW 2792   2.126   0.694   0.965 -0.7596  0.0951 -0.7253
  986SOL    HW1 2793   2.162   0.618   0.920  2.2587 -1.4998  3.6453
  986SOL    HW2 2794   2.067   0.658   1.031 -1.6137  1.8327 -0.4597
  987SOL     OW 2795   1.261   2.957   0.650 -0.0500 -0.0890 -0.3440
  987SOL    HW1 2796   1.302   2.951   0.563 -1.1776  0.3283 -0.9314
  987SOL    HW2 2797   1.222   2.870   0.664  0.3826 -0.2481 -0.1235
  988SOL     OW 2798   3.957   2.431   0.446  0.2013  0.5957 -0.3463
  988SOL    HW1 2799   3.946   2.380   0.366 -2.3221 -0.5296  0.6134
  988SOL    HW2 2800   3.902   2.508   0.433 -3.4854 -1.4397  1.6302
  989SOL     OW 2801   2.255   1.954   1.225  0.7008  0.1126  0.5860
  989SOL    HW1 2802   2.245   2.045   1.253 -2.6575  0.0091  0.1066
  989SOL    HW2 2803   2.334   1.954   1.171  1.1850  2.5883  1.1928
  990SOL     OW 2804   3.916   2.587   3.631 -0.0522 -0.1845 -0.2101
  990SOL    HW1 2805   3.833   2.554   3.597 -0.0510 -1.1841  0.6996
  990SOL    HW2 2806   3.979   2.568   3.562 -0.3204 -0.7938 -0.2947
  991SOL     OW 2807   3.527   0.700   3.188  0.2324  0.2246 -0.5134
  991SOL    HW1 2808   3.614   0.713   3.150  0.5029 -2.0488 -0.8445
  991SOL    HW2 2809   3.481   0.782   3.173  2.4048  1.5998 -0.0675
  992SOL     OW 2810   1.333   0.331   1.195 -0.2916 -0.0712  0.0191
  992SOL    HW1 2811   1.334   0.416   1.240  1.6670  0.0276 -0.1163
  992SOL    HW2 2812   1.294   0.349   1.110  0.3301  0.7692 -0.1013
  993SOL     OW 2813   1.110   1.350   0.708 -0.1688 -0.3709  0.5495
  993SOL    HW1 2814   1.175   1.348   0.778 -0.3366  2.1222  0.8392
  993SOL    HW2 2815   1.149   1.298   0.638  0.5083 -1.9388  2.0047
  994SOL     OW 2816   1.147   0.415   0.295 -0.3484 -0.0131 -0.9917
  994SOL    HW1 2817   1.201   0.481   0.253 -1.5468  1.1297 -0.8139
  994SOL    HW2 2818   1.208   0.363   0.347  0.7453  0.3631 -1.8612
  995SOL     OW 2819   3.721   3.285   2.297 -0.1123 -0.9521 -0.9013
  995SOL    HW1 2820   3.640   3.251   2.336  0.7737 -1.3792  0.6623
  995SOL    HW2 2821   3.745   3.220   2.231 -1.4932 -0.3624 -2.0467
  996SOL     OW 2822   0.092   3.766   2.764  0.0861 -0.3956 -0.1809
  996SOL    HW1 2823   0.007   3.764   2.808  0.1802  0.2076  0.0310
  996SOL    HW2 2824   0.103   3.857   2.737  0.6835 -0.4640 -0.1818
  997SOL     OW 2825   1.872   0.368   3.145  0.0202 -0.2498  0.3299
  997SOL    HW1 2826   1.791   0.365   3.094 -0.0968  0.0149  0.4999
  997SOL    HW2 2827   1.872   0.286   3.195  0.5191 -0.8825 -0.6820
  998SOL     OW 2828   3.327   3.362   3.558 -0.1706 -0.2802 -0.4643
  998SOL    HW1 2829   3.318   3.303   3.483  0.1624  0.0688 -0.7833
  998SOL    HW2 2830   3.284   3.443   3.530  2.9056  1.1046 -1.6663
  999SOL     OW 2831   1.147   2.532   1.740  0.1128 -0.2615 -0.0106
  999SOL    HW1 2832   1.064   2.529   1.787  0.7858  1.0503  1.3799
  999SOL    HW2 2833   1.151   2.450   1.692 -3.1752  0.7391 -2.2833
 1000SOL     OW 2834   2.269   0.400   3.633 -0.0441 -0.0022 -0.1809
 1000SOL    HW1 2835   2.267   0.474   3.695  0.8844  1.5738 -1.9257
 1000SOL    HW2 2836   2.342   0.420   3.575 -1.7655 -0.6120 -2.7309
 1001SOL     OW 2837   1.666   0.458   0.626  0.3319 -0.3288  0.4598
 1001SOL    HW1 2838   1.654   0.400   0.701 -0.0176 -0.4189  0.3379
 1001SOL    HW2 2839   1.742   0.511   0.648  0.1913 -0.3090  0.9049
 1002SOL     OW 2840   2.326   2.967   0.149 -0.0749 -0.0023 -0.1397
 1002SOL    HW1 2841   2.376   2.935   0.074 -0.9740  1.0641 -1.2357
 1002SOL    HW2 2842   2.392   3.008   0.206  0.4376  0.5286 -1.0887
 1003SOL     OW 2843   2.620   1.503   1.245  0.2231  0.1701 -0.0935
 1003SOL    HW1 2844   2.660   1.458   1.320 -1.6187 -3.1560 -0.9473
 1003SOL    HW2 2845   2.641   1.449   1.170 -0.8579  1.6042 -1.4967
 1004SOL     OW 2846   2.699   1.229   2.296  0.1476  0.0618 -0.0894
 1004SOL    HW1 2847   2.655   1.310   2.270  0.4476  0.0379 -0.7005
 1004SOL    HW2 2848   2.775   1.258   2.346 -0.9650  0.0824  1.6697
 1005SOL     OW 2849   0.895   0.483   1.182 -0.6015 -0.1061 -0.0477
 1005SOL    HW1 2850   0.967   0.535   1.147  0.5275 -0.8434  1.0728
 1005SOL    HW2 2851   0.885   0.411   1.120  0.6695 -0.8179  0.5104
 1006SOL     OW 2852   4.069   3.014   3.031  0.0941 -0.5214  0.4593
 1006SOL    HW1 2853   4.061   3.095   3.081  0.5544 -0.7496  0.9123
 1006SOL    HW2 2854   4.127   2.959   3.084  1.9305 -0.1504 -1.0677
 1007SOL     OW 2855   2.265   0.534   2.741 -0.1367  0.3326  0.6214
 1007SOL    HW1 2856   2.178   0.498   2.756 -0.2819  0.6141  0.4672
 1007SOL    HW2 2857   2.278   0.596   2.813 -0.3359  0.7816  0.2739
 1008SOL     OW 2858   0.178   1.396   1.670 -0.0668 -0.4664 -0.3080
 1008SOL    HW1 2859   0.237   1.464   1.636 -0.5298  2.1650  3.5253
 1008SOL    HW2 2860   0.133   1.363   1.592  1.6408  2.1887 -2.6287
 1009SOL     OW 2861   0.194   1.966   0.402  0.4938  0.0916  0.2715
 1009SOL    HW1 2862   0.145   2.025   0.344  0.1551 -0.0492  0.4080
 1009SOL    HW2 2863   0.276   2.011   0.419 -0.2093  1.0518  1.2676
 1010SOL     OW 2864   0.443   1.425   0.026  0.3086  0.1387 -0.2943
 1010SOL    HW1 2865   0.463   1.371   0.102  0.7497  0.1318 -0.4091
 1010SOL    HW2 2866   0.529   1.448  -0.010  0.2348  2.6220  0.9572
 1011SOL     OW 2867   0.890   1.238   2.852 -0.0035 -0.7395  0.6388
 1011SOL    HW1 2868   0.846   1.300   2.910 -1.1039 -1.2778  0.4057
 1011SOL    HW2 2869   0.962   1.203   2.905  1.7541  1.9445  0.2329
 1012SOL     OW 2870   1.889   3.055   2.582  0.6028 -0.2566  0.3403
 1012SOL    HW1 2871   1.880   3.149   2.592  0.2562 -0.2669  0.1116
 1012SOL    HW2 2872   1.956   3.031   2.647  1.1797  0.2334 -0.0661
 1013SOL     OW 2873   3.281   0.565   4.047  0.3910 -0.6769  0.2784
 1013SOL    HW1 2874   3.247   0.477   4.060  0.2660 -0.5673  0.7143
 1013SOL    HW2 2875   3.303   0.595   4.136  0.2023 -0.1774  0.1176
 1014SOL     OW 2876   1.878   2.800   3.259  0.4480  0.5413 -0.2792
 1014SOL    HW1 2877   1.890   2.877   3.315  2.1589  0.8795 -1.0546
 1014SOL    HW2 2878   1.955   2.746   3.276  1.1973  0.8073 -2.4891
 1015SOL     OW 2879   2.944   0.204   0.682  0.1371 -0.0235 -0.2314
 1015SOL    HW1 2880   2.881   0.153   0.733 -0.4169 -0.0902 -0.9772
 1015SOL    HW2 2881   2.893   0.275   0.644  0.5610  0.0724 -0.6283
 1016SOL     OW 2882   3.430   2.385   2.447 -0.3955 -0.0179 -0.1148
 1016SOL    HW1 2883   3.425   2.363   2.354 -1.9048  0.2673 -0.1320
 1016SOL    HW2 2884   3.481   2.315   2.486 -2.2545 -1.7865 -0.7014
 1017SOL     OW 2885   0.083   3.444   0.726 -0.3130  0.2432 -0.4535
 1017SOL    HW1 2886   0.037   3.500   0.789 -0.0099 -0.2004  0.1595
 1017SOL    HW2 2887   0.013   3.392   0.686 -0.3875 -0.2532  0.3010
 1018SOL     OW 2888   1.235   3.876   2.032 -0.3901 -0.0320  0.0885
 1018SOL    HW1 2889   1.143   3.882   2.008 -0.8251 -2.5778  0.7841
 1018SOL    HW2 2890   1.242   3.922   2.115 -0.9250  0.5938 -0.2093
 1019SOL     OW 2891   2.557   0.831   3.026  0.0234  0.1846 -0.2086
 1019SOL    HW1 2892   2.623   0.851   2.960  0.5264  0.0645  0.2495
 1019SOL    HW2 2893   2.577   0.741   3.054  0.8328  0.7876  1.2604
 1020SOL     OW 2894   0.906   2.050   1.564 -0.8195 -0.3897 -0.3553
 1020SOL    HW1 2895   0.912   1.955   1.555 -0.1174 -0.2951 -0.9306
 1020SOL    HW2 2896   0.908   2.065   1.659 -0.8757 -0.9369 -0.2631
 1021SOL     OW 2897   0.392   0.269   0.633 -0.2222  0.3120  0.9425
 1021SOL    HW1 2898   0.317   0.307   0.587  1.0903  1.6624 -0.1741
 1021SOL    HW2 2899   0.382   0.175   0.623 -1.8043  0.4585  0.9030
 1022SOL     OW 2900   0.551   0.434   0.433 -0.2691  0.4997 -0.3702
 1022SOL    HW1 2901   0.499   0.474   0.363  1.0452  1.7132 -0.6840
 1022SOL    HW2 2902   0.486   0.405   0.497 -1.4052  0.7928 -1.3479
 1023SOL     OW 2903   2.273   2.794   1.766 -0.6887  0.5029 -0.0660
 1023SOL    HW1 2904   2.207   2.789   1.835  1.4987 -1.8933  2.0637
 1023SOL    HW2 2905   2.246   2.727   1.703 -0.5917 -0.1495  0.5621
 1024SOL     OW 2906   0.384   0.954   2.181 -0.0863 -0.3763  0.0589
 1024SOL    HW1 2907   0.349   0.964   2.270 -0.6971 -0.9438 -0.1061
 1024SOL    HW2 2908   0.430   1.036   2.164 -0.3236 -0.0890  0.7388
 1025SOL     OW 2909   2.750   3.222   3.756  0.0189  0.0706 -0.4392
 1025SOL    HW1 2910   2.757   3.317   3.764  0.6232  0.0510 -0.6736
 1025SOL    HW2 2911   2.723   3.207   3.666 -1.0245  0.0513 -0.1374
 1026SOL     OW 2912   0.803   1.113   1.973  0.0090  0.2866  0.3764
 1026SOL    HW1 2913   0.721   1.162   1.975 -1.2965 -1.6879 -0.8069
 1026SOL    HW2 2914   0.802   1.062   2.054  0.3088  0.6135  0.5873
 1027SOL     OW 2915   1.477   0.334   3.893 -0.3335 -0.2717 -0.3614
 1027SOL    HW1 2916   1.536   0.309   3.823  1.4876 -0.0767  1.0242
 1027SOL    HW2 2917   1.424   0.256   3.909  0.4074 -0.8784 -0.8233
 1028SOL     OW 2918   0.336   2.969   1.651  0.5301 -0.3617 -0.2568
 1028SOL    HW1 2919   0.430   2.961   1.667  0.2757 -1.4662  0.8657
 1028SOL    HW2 2920   0.309   3.043   1.704  0.7305 -0.1538 -0.4415
 1029SOL     OW 2921   0.762   2.416   1.624  0.1317 -0.2172 -0.6963
 1029SOL    HW1 2922   0.731   2.327   1.640 -1.4455 -0.1165 -2.7840
 1029SOL    HW2 2923   0.730   2.467   1.698 -1.5105 -0.8586 -0.9230
 1030SOL     OW 2924   0.483   2.613   0.681  0.1123 -0.1981  0.0868
 1030SOL    HW1 2925   0.412   2.600   0.618  1.0870 -1.4350 -0.8217
 1030SOL    HW2 2926   0.556   2.645   0.629  0.4718  0.2899  0.8693
 1031SOL     OW 2927   1.926   3.535   0.830 -0.2517  0.1905 -0.4957
 1031SOL    HW1 2928   1.885   3.576   0.754  0.6515  1.7237 -0.1895
 1031SOL    HW2 2929   1.869   3.558   0.903 -1.3635 -1.6546 -0.7210
 1032SOL     OW 2930   1.664   0.823   0.996 -0.1944 -0.2990  0.1311
 1032SOL    HW1 2931   1.593   0.858   1.049 -0.5739  0.1737 -0.6950
 1032SOL    HW2 2932   1.732   0.891   0.998 -0.1040 -0.3909  0.2189
 1033SOL     OW 2933   0.916   2.798   0.713  0.0648  0.3891  0.5696
 1033SOL    HW1 2934   0.901   2.883   0.754 -1.0902  0.0710  0.8399
 1033SOL    HW2 2935   0.830   2.770   0.683  0.1470 -1.3311  1.7632
 1034SOL     OW 2936   1.747   1.197   3.179 -0.0786 -0.7555  0.1952
 1034SOL    HW1 2937   1.814   1.149   3.227  0.6691  1.2947  1.3000
 1034SOL    HW2 2938   1.792   1.274   3.144 -2.2709  2.4606  3.6721
 1035SOL     OW 2939   0.827   0.958   3.353  0.4745 -0.4086 -0.0327
 1035SOL    HW1 2940   0.815   0.881   3.409  0.2104 -0.8591 -0.7025
 1035SOL    HW2 2941   0.921   0.977   3.358  0.7575 -1.5062 -0.7958
 1036SOL     OW 2942   3.329   2.831   0.489 -0.1401  0.4454  0.1425
 1036SOL    HW1 2943   3.405   2.860   0.538  1.2124 -1.0795 -0.9397
 1036SOL    HW2 2944   3.329   2.883   0.409 -0.7962  1.0765  0.5376
 1037SOL     OW 2945   1.879   2.583   2.390 -0.2573  0.1262 -0.6404
 1037SOL    HW1 2946   1.810   2.518   2.383  0.5375 -0.8613  0.4352
 1037SOL    HW2 2947   1.897   2.591   2.483 -1.1334  2.7870 -0.5978
 1038SOL     OW 2948   2.850   2.784   0.943  0.5741 -0.6743 -0.0176
 1038SOL    HW1 2949   2.890   2.850   1.000 -0.5966  0.3274 -0.3379
 1038SOL    HW2 2950   2.857   2.702   0.993 -0.1861  0.1320  1.4646
 1039SOL     OW 2951   2.837   1.462   3.500  0.3753 -0.1701  0.2217
 1039SOL    HW1 2952   2.791   1.390   3.457  2.2211 -1.8841  0.9778
 1039SOL    HW2 2953   2.771   1.502   3.557 -1.0447 -0.3288 -1.2419
 1040SOL     OW 2954   2.109   1.036   1.069  0.3742 -0.3286  0.1943
 1040SOL    HW1 2955   2.113   1.092   1.147  1.4162 -1.0421  0.6707
 1040SOL    HW2 2956   2.146   0.953   1.096 -1.2588 -1.3389 -0.4744
 1041SOL     OW 2957   1.804   0.267   2.086 -0.0324 -0.3130  0.1893
 1041SOL    HW1 2958   1.736   0.207   2.117 -0.1186  0.7533  2.2304
 1041SOL    HW2 2959   1.789   0.348   2.134  0.8029  0.9921 -1.6360
 1042SOL     OW 2960   1.021   1.188   3.698 -0.1737 -0.7866  0.0617
 1042SOL    HW1 2961   1.062   1.209   3.782 -0.5935  1.4184 -0.2045
 1042SOL    HW2 2962   0.933   1.224   3.705  0.2925  0.9044 -1.8337
 1043SOL     OW 2963   0.017   4.034   1.231  0.2290  0.7212  0.0587
 1043SOL    HW1 2964   0.096   4.077   1.199 -0.1972  0.7797 -0.9640
 1043SOL    HW2 2965   0.042   3.942   1.243  0.6179  0.8660  0.3637
 1044SOL     OW 2966   0.540   3.032   1.826  0.3585 -1.0117 -0.0246
 1044SOL    HW1 2967   0.611   3.090   1.798  2.0310 -2.7011  0.4984
 1044SOL    HW2 2968   0.545   3.034   1.922 -1.5754  0.2790  0.1147
 1045SOL     OW 2969   1.166   1.974   3.307  0.2836  0.2307 -0.3927
 1045SOL    HW1 2970   1.081   1.941   3.338  0.8216 -0.9464 -0.1012
 1045SOL    HW2 2971   1.223   1.967   3.384  0.5350  1.4838 -0.4468
 1046SOL     OW 2972   1.561   0.234   1.871  0.0811 -0.1157 -0.0922
 1046SOL    HW1 2973   1.495   0.233   1.802 -0.6775  0.1038  0.6208
 1046SOL    HW2 2974   1.546   0.153   1.920  0.9117 -0.4970 -0.4506
 1047SOL     OW 2975   1.950   2.440   1.206 -0.3163  0.0015  0.3112
 1047SOL    HW1 2976   1.884   2.407   1.267 -0.3429  0.1249  0.3509
 1047SOL    HW2 2977   1.903   2.450   1.123  0.0005 -1.2711 -0.0422
 1048SOL     OW 2978   1.554   3.513   1.160 -0.2782  0.1468  0.1302
 1048SOL    HW1 2979   1.460   3.497   1.151 -0.1711 -2.1368  2.1280
 1048SOL    HW2 2980   1.595   3.429   1.143  1.2883  0.7181  0.8230
 1049SOL     OW 2981   3.238   2.573   0.418 -0.1914  0.0936 -0.3967
 1049SOL    HW1 2982   3.157   2.582   0.369  0.0391  1.7774 -0.5351
 1049SOL    HW2 2983   3.270   2.663   0.429  0.6488 -0.3631  1.3497
 1050SOL     OW 2984   2.032   0.534   2.500  0.2818 -0.4608 -0.0176
 1050SOL    HW1 2985   2.048   0.474   2.572  0.0433  0.1384  0.5540
 1050SOL    HW2 2986   2.043   0.482   2.421  3.3332 -0.4997  0.3435
 1051SOL     OW 2987   3.512   0.479   2.177 -0.1354  0.0923 -0.4186
 1051SOL    HW1 2988   3.449   0.440   2.117  1.2237 -0.0764 -1.7751
 1051SOL    HW2 2989   3.532   0.564   2.139  1.2754 -0.3094 -0.6259
 1052SOL     OW 2990   1.200   2.795   1.607  0.0433 -0.5781  0.0874
 1052SOL    HW1 2991   1.220   2.855   1.679  0.2393 -0.8777  0.2878
 1052SOL    HW2 2992   1.207   2.708   1.647  1.3107 -0.7962 -0.5782
 1053SOL     OW 2993   1.829   0.809   1.396 -0.3783  0.4051 -0.5524
 1053SOL    HW1 2994   1.909   0.792   1.345 -0.3577 -0.2194 -0.3208
 1053SOL    HW2 2995   1.790   0.886   1.354  0.4486  0.8432 -0.5441
 1054SOL     OW 2996   4.002   2.799   3.364 -0.0089 -0.1695  0.0661
 1054SOL    HW1 2997   4.047   2.837   3.288 -1.3117 -0.3813 -0.8256
 1054SOL    HW2 2998   4.035   2.709   3.368  0.4127 -0.0199  0.0632
 1055SOL     OW 2999   2.069   3.033   2.767  0.1452  0.0421  0.4602
 1055SOL    HW1 3000   2.161   3.057   2.750 -0.2236  0.6528 -0.7493
 1055SOL    HW2 3001   2.032   3.111   2.809 -0.3291  0.6041 -0.9306
 1056SOL     OW 3002   2.080   3.611   2.656  0.4510  0.3673  0.4533
 1056SOL    HW1 3003   2.089   3.623   2.561  0.9895 -1.6921  0.1982
 1056SOL    HW2 3004   2.033   3.689   2.686  0.1799  1.0075 -1.5126
 1057SOL     OW 3005   2.841   1.499   3.176  0.1129 -0.1292  0.0823
 1057SOL    HW1 3006   2.853   1.406   3.154  1.0129  0.0187 -0.0931
 1057SOL    HW2 3007   2.911   1.517   3.239  1.6698  1.1008 -1.8814
 1058SOL     OW 3008   1.022   2.975   4.037  0.5506  0.0212  0.7622
 1058SOL    HW1 3009   1.056   2.887   4.019  2.9153  0.9477  0.3739
 1058SOL    HW2 3010   1.077   3.008   4.108  0.9175  1.8303 -0.2955
 1059SOL     OW 3011   3.147   2.148   2.312  0.3623 -0.0260 -0.1232
 1059SOL    HW1 3012   3.126   2.225   2.366  0.7082 -0.1928  0.2552
 1059SOL    HW2 3013   3.104   2.165   2.228  1.1103  0.9744 -0.3223
 1060SOL     OW 3014   2.390   1.172   2.145  0.7645 -0.2206 -0.1094
 1060SOL    HW1 3015   2.378   1.180   2.240 -1.5663  1.6826 -0.4666
 1060SOL    HW2 3016   2.353   1.086   2.124 -0.7908  0.2447  0.5008
 1061SOL     OW 3017   3.159   1.676   0.263  0.1182  0.1524  0.0754
 1061SOL    HW1 3018   3.156   1.687   0.358 -0.2816  1.9629 -0.1143
 1061SOL    HW2 3019   3.070   1.653   0.238  0.2950 -0.6556  0.1516
 1062SOL     OW 3020   3.838   3.884   3.929 -0.3633 -0.0896 -0.0234
 1062SOL    HW1 3021   3.762   3.859   3.876 -1.4246  0.9993  0.9122
 1062SOL    HW2 3022   3.835   3.824   4.004  0.7408 -1.1862 -0.8278
 1063SOL     OW 3023   2.785   2.955   3.166  0.1321  0.1481  0.1295
 1063SOL    HW1 3024   2.817   3.043   3.186 -1.8214  0.5910  1.5355
 1063SOL    HW2 3025   2.790   2.907   3.249 -0.5439 -0.5015 -0.1861
 1064SOL     OW 3026   0.629   2.398   1.262  0.5107 -0.0562  0.0372
 1064SOL    HW1 3027   0.680   2.325   1.299  1.6397  1.3180  1.3312
 1064SOL    HW2 3028   0.554   2.356   1.220 -0.5081 -1.8550  3.2791
 1065SOL     OW 3029   0.609   2.200   1.751 -0.6347  0.0571  0.0954
 1065SOL    HW1 3030   0.554   2.194   1.829 -2.6236 -1.8736 -1.3497
 1065SOL    HW2 3031   0.642   2.112   1.738  0.8064  0.6525 -0.5215
 1066SOL     OW 3032   2.405   1.853   0.764 -0.1647  0.1278  0.1910
 1066SOL    HW1 3033   2.373   1.876   0.677  2.6817  2.4921 -0.3840
 1066SOL    HW2 3034   2.483   1.799   0.749  0.0005  0.0256  1.2910
 1067SOL     OW 3035   0.875   2.011   3.025 -0.5677 -0.5256 -0.2432
 1067SOL    HW1 3036   0.923   1.986   3.104  0.3460 -0.8755 -0.8837
 1067SOL    HW2 3037   0.907   2.099   3.005 -0.4467 -0.6197 -0.4727
 1068SOL     OW 3038   3.310   0.204   1.672 -0.0254  0.1808  0.1960
 1068SOL    HW1 3039   3.370   0.184   1.744 -1.2272  0.3182  1.2856
 1068SOL    HW2 3040   3.344   0.284   1.633 -0.7684  1.6114  2.3201
 1069SOL     OW 3041   1.693   1.587   1.678 -0.5399  0.5321  0.5985
 1069SOL    HW1 3042   1.747   1.664   1.660 -1.9360  1.6802  1.0679
 1069SOL    HW2 3043   1.749   1.531   1.732  1.0805  0.4184 -1.1066
 1070SOL     OW 3044   2.376   0.495   1.563  0.0190  0.0183  0.2921
 1070SOL    HW1 3045   2.465   0.486   1.529 -1.1145  1.3670 -3.5830
 1070SOL    HW2 3046   2.384   0.558   1.635  2.2947 -0.7535  0.7997
 1071SOL     OW 3047   0.705   2.920   3.393  0.6491 -0.6199 -0.6430
 1071SOL    HW1 3048   0.689   3.007   3.357  0.5734 -0.9113 -1.3305
 1071SOL    HW2 3049   0.682   2.927   3.485 -0.7458 -0.2744 -0.9935
 1072SOL     OW 3050   1.983   3.812   1.262  0.3736  0.0768  0.0413
 1072SOL    HW1 3051   1.944   3.867   1.329  0.7110 -0.9529  1.1164
 1072SOL    HW2 3052   1.961   3.855   1.179 -0.0236  1.3857  0.8040
 1073SOL     OW 3053   0.230   0.183   3.252 -0.0411 -0.2219 -0.1207
 1073SOL    HW1 3054   0.150   0.232   3.272  0.2391  0.7043 -1.1889
 1073SOL    HW2 3055   0.283   0.192   3.332 -0.2553  0.7033 -0.0639
 1074SOL     OW 3056   3.375   2.797   2.408 -0.2345  0.2417 -0.1595
 1074SOL    HW1 3057   3.398   2.743   2.483 -1.0022  1.7951  1.2582
 1074SOL    HW2 3058   3.445   2.863   2.403 -0.4935  0.5006 -0.4395
 1075SOL     OW 3059   1.972   0.023   3.708  0.2915  0.3149  0.0759
 1075SOL    HW1 3060   1.900   0.013   3.646 -1.8547 -0.1732  2.4857
 1075SOL    HW2 3061   2.007   0.110   3.691 -0.9605  0.6254 -1.1200
 1076SOL     OW 3062   4.027   3.504   2.569 -0.0424  0.0811 -0.2738
 1076SOL    HW1 3063   4.084   3.555   2.627 -2.5422  1.7727  0.8389
 1076SOL    HW2 3064   4.014   3.561   2.493  1.4498 -1.2404 -1.5877
 1077SOL     OW 3065   3.601   0.166   3.266  0.1608 -0.6064  0.1896
 1077SOL    HW1 3066   3.569   0.124   3.186  1.4310  0.3999 -0.8877
 1077SOL    HW2 3067   3.521   0.193   3.312 -0.6174 -2.2238 -0.1405
 1078SOL     OW 3068   3.527   3.684   2.056 -0.3615 -0.0081 -0.6394
 1078SOL    HW1 3069   3.570   3.617   2.003 -1.0671  1.2395 -2.8830
 1078SOL    HW2 3070   3.597   3.742   2.083 -0.3430  1.2136 -3.0817
 1079SOL     OW 3071   3.824   3.575   1.882  0.1512  0.0900  0.0408
 1079SOL    HW1 3072   3.889   3.511   1.851 -1.0376 -1.4177  0.5052
 1079SOL    HW2 3073   3.773   3.598   1.804  0.3412  0.1859 -0.0560
 1080SOL     OW 3074   0.649   2.330   2.786 -0.0103  0.0897  0.0633
 1080SOL    HW1 3075   0.698   2.304   2.864 -0.0749  0.8436  0.3635
 1080SOL    HW2 3076   0.716   2.362   2.726  0.0728 -0.7801 -0.3191
 1081SOL     OW 3077   0.766   0.233   3.601  0.1193  0.0956 -0.3043
 1081SOL    HW1 3078   0.689   0.229   3.658 -0.2055 -2.2288 -0.7987
 1081SOL    HW2 3079   0.765   0.322   3.566 -0.8843  0.9113  1.6465
 1082SOL     OW 3080   2.709   3.529   0.375 -0.9067  0.3005 -0.1782
 1082SOL    HW1 3081   2.718   3.474   0.297 -3.0212  0.9099 -0.9426
 1082SOL    HW2 3082   2.669   3.472   0.441  2.1666 -0.6289  1.0619
 1083SOL     OW 3083   2.215   3.553   2.045  0.2404 -0.0389  0.0013
 1083SOL    HW1 3084   2.252   3.520   2.127 -0.3352  1.7756  1.0300
 1083SOL    HW2 3085   2.270   3.513   1.977  1.9110 -0.1269  1.3333
 1084SOL     OW 3086   2.266   0.727   0.032  0.3933  0.5251  0.4718
 1084SOL    HW1 3087   2.238   0.818   0.030  0.3025  0.5385 -2.5735
 1084SOL    HW2 3088   2.192   0.679   0.067 -0.7750  1.3318 -0.8020
 1085SOL     OW 3089   1.683   1.916   2.168 -0.3203 -0.2772 -0.0227
 1085SOL    HW1 3090   1.704   1.856   2.240  2.3603 -0.0303 -0.4753
 1085SOL    HW2 3091   1.697   2.003   2.204  0.2856 -0.1227 -0.6155
 1086SOL     OW 3092   0.260   0.091   1.196 -0.0162  0.5288 -0.3452
 1086SOL    HW1 3093   0.308   0.165   1.232 -0.2389 -1.2293  4.2285
 1086SOL    HW2 3094   0.327   0.041   1.147  0.8017  2.1959 -0.9539
 1087SOL     OW 3095   3.408   0.130   3.545 -0.0565  0.1561  0.0557
 1087SOL    HW1 3096   3.345   0.130   3.474 -0.2936  2.5304  0.1926
 1087SOL    HW2 3097   3.426   0.222   3.562  0.1772 -0.3183  2.9187
 1088SOL     OW 3098   3.556   1.204   1.885  1.1921 -0.6592 -0.1398
 1088SOL    HW1 3099   3.480   1.196   1.828  0.3230 -0.9746  1.0494
 1088SOL    HW2 3100   3.521   1.227   1.970  2.5225  0.3923  0.1653
 1089SOL     OW 3101   2.910   2.527   2.747 -0.2864 -0.2347  0.0398
 1089SOL    HW1 3102   2.823   2.522   2.706  0.0657 -0.5422 -0.6787
 1089SOL    HW2 3103   2.947   2.440   2.737  0.3015  0.0243 -0.0847
 1090SOL     OW 3104   2.028   2.800   1.950  0.2783  0.1233  0.2564
 1090SOL    HW1 3105   1.991   2.833   2.032  0.4569 -0.1439  0.4445
 1090SOL    HW2 3106   1.957   2.810   1.887 -0.7763 -2.0195  0.9994
 1091SOL     OW 3107   2.364   1.820   3.721  1.3731 -0.3695  0.2728
 1091SOL    HW1 3108   2.349   1.729   3.695 -1.2809  0.2487 -0.6574
 1091SOL    HW2 3109   2.335   1.824   3.812  1.7328 -0.4853  0.3958
 1092SOL     OW 3110   2.985   3.790   1.139 -0.4687 -0.2381  0.0749
 1092SOL    HW1 3111   2.950   3.772   1.226  0.2249  2.7301  1.0695
 1092SOL    HW2 3112   3.023   3.877   1.145 -2.2076  1.0405 -3.7231
 1093SOL     OW 3113   4.028   4.052   2.477  0.5348 -0.5190 -1.0330
 1093SOL    HW1 3114   3.963   3.987   2.450  0.9286 -1.0872 -0.6370
 1093SOL    HW2 3115   3.983   4.104   2.544  0.8336 -1.6543  0.0434
 1094SOL     OW 3116   2.062   1.852   1.770  0.1419 -0.1861 -0.0240
 1094SOL    HW1 3117   1.996   1.860   1.838 -0.9477 -2.6362 -0.7019
 1094SOL    HW2 3118   2.118   1.928   1.782 -0.1075 -0.4162  3.4738
 1095SOL     OW 3119   2.450   3.895   1.228  0.3335 -0.0297 -0.1812
 1095SOL    HW1 3120   2.366   3.871   1.187 -0.3038  1.1984  0.3599
 1095SOL    HW2 3121   2.425   3.938   1.310  1.5761 -2.0806  1.3547
 1096SOL     OW 3122   1.323   0.507   3.267 -0.0590 -0.5748 -0.1347
 1096SOL    HW1 3123   1.387   0.579   3.273 -0.1121 -0.6460  3.0594
 1096SOL    HW2 3124   1.328   0.464   3.352 -3.5731 -1.3076 -0.1644
 1097SOL     OW 3125   1.804   2.583   2.688 -0.2432  0.0850 -0.6656
 1097SOL    HW1 3126   1.785   2.674   2.710  0.7059  0.5297 -1.5803
 1097SOL    HW2 3127   1.868   2.555   2.753  0.6416  0.5859 -1.2981
 1098SOL     OW 3128   3.382   1.159   1.029 -0.0212 -0.2086 -0.4103
 1098SOL    HW1 3129   3.404   1.096   1.098  0.2629 -0.9983 -1.2056
 1098SOL    HW2 3130   3.421   1.123   0.950 -0.4325  0.6313 -1.0154
 1099SOL     OW 3131   0.665   0.876   1.022 -0.4084  0.3818  0.3389
 1099SOL    HW1 3132   0.671   0.781   1.015  0.1686  0.4693 -0.3766
 1099SOL    HW2 3133   0.583   0.891   1.070  0.1082 -0.5098  1.5578
 1100SOL     OW 3134   3.601   0.457   1.478 -0.2375 -0.3083  0.1370
 1100SOL    HW1 3135   3.604   0.478   1.385  1.1027  1.8653  0.5936
 1100SOL    HW2 3136   3.690   0.473   1.509 -0.7087 -0.7759  1.8270
 1101SOL     OW 3137   3.889   1.107   1.277  0.4022 -0.1485  0.0278
 1101SOL    HW1 3138   3.868   1.018   1.249  1.2868  0.2147 -1.9636
 1101SOL    HW2 3139   3.958   1.095   1.343 -0.1733 -0.9558  0.5037
 1102SOL     OW 3140   1.877   2.629   1.554 -0.3782 -0.1921  0.1245
 1102SOL    HW1 3141   1.873   2.563   1.624 -2.8600 -1.0521 -0.7251
 1102SOL    HW2 3142   1.858   2.712   1.598 -1.2347 -0.6327  0.6189
 1103SOL     OW 3143   4.039   3.546   0.206 -0.2662 -0.4101  0.0730
 1103SOL    HW1 3144   4.070   3.546   0.296 -2.3793 -2.3702  0.9036
 1103SOL    HW2 3145   4.026   3.454   0.185 -0.0755  0.0136 -2.1750
 1104SOL     OW 3146   1.213   1.173   3.216 -0.1382  0.1717  0.0725
 1104SOL    HW1 3147   1.167   1.243   3.260  0.4496  1.5488 -1.3974
 1104SOL    HW2 3148   1.292   1.158   3.268 -0.1163  0.8265  0.2300
 1105SOL     OW 3149   0.151   1.842   3.296  0.2410 -0.0542 -0.2166
 1105SOL    HW1 3150   0.229   1.868   3.345 -1.1804  0.1712  2.0624
 1105SOL    HW2 3151   0.103   1.924   3.281  0.1579 -0.2555 -1.1332
 1106SOL     OW 3152   2.749   3.217   2.121 -0.3543 -0.1267  0.1157
 1106SOL    HW1 3153   2.656   3.209   2.142 -0.3054 -2.2810 -0.2700
 1106SOL    HW2 3154   2.756   3.301   2.075 -2.1924 -0.1711 -0.3409
 1107SOL     OW 3155   2.645   1.691   1.892 -0.1454 -0.4477  0.5013
 1107SOL    HW1 3156   2.615   1.749   1.962 -1.2618 -0.0250 -0.2979
 1107SOL    HW2 3157   2.604   1.725   1.812  3.7069  1.1789 -1.0504
 1108SOL     OW 3158   3.441   1.990   0.741 -0.1455  0.0550 -0.3551
 1108SOL    HW1 3159   3.351   1.960   0.732 -0.0338 -0.5357  0.3822
 1108SOL    HW2 3160   3.435   2.071   0.790 -0.2647 -0.0475 -0.2014
 1109SOL     OW 3161   0.128   4.032   2.274  0.3361  0.1538 -0.1387
 1109SOL    HW1 3162   0.153   3.945   2.306  1.1699  0.5465  0.3138
 1109SOL    HW2 3163   0.063   4.063   2.338 -0.5610 -0.4381 -0.7333
 1110SOL     OW 3164   2.911   1.498   1.030  0.5692 -0.8924  0.3136
 1110SOL    HW1 3165   2.882   1.578   0.985 -0.6049  0.5013  3.2929
 1110SOL    HW2 3166   2.833   1.443   1.033  0.9513 -1.4821 -0.3122
 1111SOL     OW 3167   0.425   0.681   0.034 -0.1918 -0.0715  0.4047
 1111SOL    HW1 3168   0.499   0.741   0.026  0.0294 -0.4820 -0.9158
 1111SOL    HW2 3169   0.348   0.737   0.042  0.2799  0.3656  2.4126
 1112SOL     OW 3170   0.286   1.591   3.233  0.6490  0.0455  0.2686
 1112SOL    HW1 3171   0.269   1.681   3.204 -0.6405  0.3277  1.7566
 1112SOL    HW2 3172   0.382   1.586   3.239  0.8360  0.7068 -1.5921
 1113SOL     OW 3173   3.987   1.025   2.834 -0.0858 -0.0534  0.1826
 1113SOL    HW1 3174   3.910   1.061   2.790 -1.3702 -0.4601  1.9738
 1113SOL    HW2 3175   3.981   0.930   2.818  1.1749  0.0709 -1.3052
 1114SOL     OW 3176   0.903   1.727   2.828 -0.1608  0.0905 -0.1806
 1114SOL    HW1 3177   0.913   1.742   2.922 -2.1496  0.6030 -0.0052
 1114SOL    HW2 3178   0.977   1.773   2.788 -0.7713  2.2106  0.9928
 1115SOL     OW 3179   1.600   2.017   3.338  0.3008 -0.3561 -0.3471
 1115SOL    HW1 3180   1.550   2.071   3.277 -0.2399 -1.2860 -0.7437
 1115SOL    HW2 3181   1.640   2.080   3.399 -1.3494  0.4076 -0.0091
 1116SOL     OW 3182   2.192   2.550   1.155  0.4043  0.5981 -0.2572
 1116SOL    HW1 3183   2.171   2.612   1.085 -0.6731  2.2107  1.4013
 1116SOL    HW2 3184   2.106   2.523   1.190  0.9003 -0.5983  0.1115
 1117SOL     OW 3185   3.679   3.924   1.208  0.7068  0.0095 -0.3061
 1117SOL    HW1 3186   3.654   3.964   1.292  0.9175 -0.2099 -0.1376
 1117SOL    HW2 3187   3.596   3.894   1.171  0.0589  3.4121 -1.9447
 1118SOL     OW 3188   3.700   3.453   3.847  0.1585  0.8189  0.1742
 1118SOL    HW1 3189   3.768   3.509   3.885  0.2715  0.3581  0.6594
 1118SOL    HW2 3190   3.747   3.392   3.791  0.1868  0.2805  0.7739
 1119SOL     OW 3191   3.175   4.024   1.217 -0.4969 -0.3630 -0.2228
 1119SOL    HW1 3192   3.249   4.032   1.158  0.3766  1.0204  0.9783
 1119SOL    HW2 3193   3.209   3.976   1.293 -0.9117 -0.0264  0.1883
 1120SOL     OW 3194   1.223   2.988   1.841 -0.2296 -0.2068  0.5314
 1120SOL    HW1 3195   1.134   2.953   1.838  0.2048 -1.3494  0.4198
 1120SOL    HW2 3196   1.255   2.966   1.929 -0.0636  0.2225  0.5821
 1121SOL     OW 3197   0.264   3.607   1.744  0.1324 -0.2776 -0.0958
 1121SOL    HW1 3198   0.235   3.567   1.663 -1.3041  1.9899 -0.7902
 1121SOL    HW2 3199   0.346   3.651   1.721 -0.5425  0.7993 -0.4714
 1122SOL     OW 3200   1.124   0.827   2.877  0.1250 -0.1456 -0.3346
 1122SOL    HW1 3201   1.162   0.891   2.937 -0.9423  0.9450 -0.7820
 1122SOL    HW2 3202   1.178   0.748   2.890  0.9715  0.5706  0.8078
 1123SOL     OW 3203   2.260   3.837   2.804  0.0203  0.2046 -0.7312
 1123SOL    HW1 3204   2.264   3.765   2.742 -0.4927  0.0969 -0.6492
 1123SOL    HW2 3205   2.197   3.898   2.766  0.4184  0.5930 -0.7795
 1124SOL     OW 3206   1.152   1.996   2.321  0.1718  0.1599 -0.0992
 1124SOL    HW1 3207   1.227   1.971   2.267  0.0299  0.2851 -0.3594
 1124SOL    HW2 3208   1.129   1.917   2.369 -0.2267 -0.1987 -0.8603
 1125SOL     OW 3209   2.592   2.807   1.524 -0.5587  0.3595 -0.5929
 1125SOL    HW1 3210   2.613   2.830   1.434 -0.9085  0.8921 -0.5441
 1125SOL    HW2 3211   2.582   2.712   1.524  0.6348  0.2164 -0.8628
 1126SOL     OW 3212   3.251   3.702   3.836 -0.7383 -0.3270  0.1718
 1126SOL    HW1 3213   3.296   3.708   3.752  0.1491  0.3385  0.6820
 1126SOL    HW2 3214   3.306   3.645   3.890 -1.1597 -0.5303  0.3927
 1127SOL     OW 3215   1.774   2.424   0.999 -0.2275  0.5376 -0.3238
 1127SOL    HW1 3216   1.747   2.460   0.914  0.0306  1.7494  0.0907
 1127SOL    HW2 3217   1.698   2.437   1.055  0.7330  2.9485  0.5469
 1128SOL     OW 3218   0.316   3.746   3.999 -0.6855  0.1809 -0.1792
 1128SOL    HW1 3219   0.239   3.749   4.055 -0.8311 -0.0097 -0.3654
 1128SOL    HW2 3220   0.359   3.830   4.011  0.3913 -0.5951  1.7728
 1129SOL     OW 3221   3.030   2.920   2.071  0.2430  0.0668 -0.1931
 1129SOL    HW1 3222   3.037   2.830   2.040 -1.2296 -0.3736  0.6689
 1129SOL    HW2 3223   2.984   2.914   2.154 -0.8256  1.6993 -0.6166
 1130SOL     OW 3224   2.989   3.778   3.775 -0.9853 -0.1018  0.1752
 1130SOL    HW1 3225   2.924   3.756   3.842 -1.2660  0.3903  0.0688
 1130SOL    HW2 3226   3.067   3.727   3.799 -2.3251 -3.1063 -1.4009
 1131SOL     OW 3227   0.088   0.749   4.059  0.3802  0.2269 -0.2684
 1131SOL    HW1 3228   0.166   0.787   4.019 -0.7961  0.2914 -2.6918
 1131SOL    HW2 3229   0.018   0.764   3.995 -2.1585  2.0421  2.6816
 1132SOL     OW 3230   1.440   3.860   3.244  0.1005 -0.6869  0.1283
 1132SOL    HW1 3231   1.368   3.861   3.181  0.4051 -0.4823 -0.2244
 1132SOL    HW2 3232   1.468   3.952   3.250  0.8040 -0.8693 -0.2937
 1133SOL     OW 3233   2.458   3.664   0.610 -0.0155  0.3866 -0.8210
 1133SOL    HW1 3234   2.552   3.649   0.602 -0.0243 -0.9788  1.0156
 1133SOL    HW2 3235   2.450   3.733   0.677 -0.3293 -1.8748  1.6227
 1134SOL     OW 3236   3.922   3.706   3.186  1.1780 -0.0461  0.0709
 1134SOL    HW1 3237   3.876   3.706   3.103  2.3350  2.6847 -0.6743
 1134SOL    HW2 3238   4.013   3.689   3.163  1.3857 -0.0474  0.8706
 1135SOL     OW 3239   1.163   1.215   1.126  0.2975 -0.1168 -0.3356
 1135SOL    HW1 3240   1.213   1.193   1.047 -1.1014 -1.0718 -0.9884
 1135SOL    HW2 3241   1.110   1.137   1.143 -1.2664  1.0054  0.0897
 1136SOL     OW 3242   0.136   1.431   3.053 -0.3621  0.0184  0.1946
 1136SOL    HW1 3243   0.068   1.484   3.010 -2.0673 -1.4992  0.8694
 1136SOL    HW2 3244   0.192   1.494   3.097 -0.5893  1.4131 -1.4145
 1137SOL     OW 3245   0.679   1.938   1.721  0.1681 -0.0816  0.5953
 1137SOL    HW1 3246   0.629   1.919   1.801 -4.8026  1.9589 -1.5781
 1137SOL    HW2 3247   0.685   1.853   1.677 -0.8998 -0.5353  1.2656
 1138SOL     OW 3248   2.225   4.030   0.151 -0.5276  0.7393  0.2942
 1138SOL    HW1 3249   2.249   3.955   0.098 -0.4029  0.3720  0.8631
 1138SOL    HW2 3250   2.305   4.081   0.160 -0.9145  1.6517 -1.2078
 1139SOL     OW 3251   2.874   2.884   1.226 -0.0804  0.9958 -0.5176
 1139SOL    HW1 3252   2.886   2.943   1.300  0.6782  0.7804 -0.4521
 1139SOL    HW2 3253   2.955   2.832   1.224 -0.0663  1.0365 -1.5335
 1140SOL     OW 3254   1.498   1.890   0.766  0.5457 -0.1815 -0.4775
 1140SOL    HW1 3255   1.590   1.908   0.747  0.9530 -1.9736 -0.3254
 1140SOL    HW2 3256   1.479   1.808   0.720 -1.3045  0.7024 -1.4177
 1141SOL     OW 3257   3.048   3.592   0.969  0.1953 -0.1168 -0.6129
 1141SOL    HW1 3258   3.033   3.664   1.029  0.1162 -0.7772  0.1680
 1141SOL    HW2 3259   3.076   3.634   0.887 -1.7905  0.9073 -0.8181
 1142SOL     OW 3260   1.987   3.881   0.985 -0.2884 -0.7721  0.5308
 1142SOL    HW1 3261   2.009   3.861   0.894  0.1228  0.5226  0.3249
 1142SOL    HW2 3262   1.909   3.936   0.979  0.0894 -0.1774  0.9064
 1143SOL     OW 3263   0.476   1.027   0.065  0.0303  0.1425  0.4915
 1143SOL    HW1 3264   0.493   1.089   0.135 -0.9423 -1.2523  2.0369
 1143SOL    HW2 3265   0.426   1.077   0.000 -1.0563  0.8866  1.8951
 1144SOL     OW 3266   0.328   2.013   3.505 -0.4343  0.4986  0.5540
 1144SOL    HW1 3267   0.314   2.087   3.446  0.5919  0.6851  0.5296
 1144SOL    HW2 3268   0.359   2.053   3.586  1.9881  0.0132 -0.0640
 1145SOL     OW 3269   3.005   2.641   1.516  0.0276  0.2232  0.0684
 1145SOL    HW1 3270   2.978   2.733   1.523  0.9951  0.4380  1.4288
 1145SOL    HW2 3271   2.983   2.604   1.602  3.5418  0.3253  1.1455
 1146SOL     OW 3272   1.154   3.454   2.493  0.6417  0.0073  0.4201
 1146SOL    HW1 3273   1.223   3.520   2.504  0.6120  0.4580 -1.5904
 1146SOL    HW2 3274   1.074   3.505   2.480  0.4720 -0.4192 -0.2897
 1147SOL     OW 3275   1.050   3.366   3.550 -0.1705  0.1054 -0.1350
 1147SOL    HW1 3276   0.965   3.397   3.579  0.4337  2.0319 -0.2514
 1147SOL    HW2 3277   1.040   3.354   3.455 -0.2112  0.7674 -0.2216
 1148SOL     OW 3278   0.277   0.113   0.311 -0.1628  0.4543  0.7907
 1148SOL    HW1 3279   0.225   0.096   0.233 -0.4966  2.3814  0.5421
 1148SOL    HW2 3280   0.367   0.090   0.286 -0.0795  2.0616 -0.5713
 1149SOL     OW 3281   2.633   1.955   0.561 -0.1176 -0.2492 -0.1246
 1149SOL    HW1 3282   2.571   2.025   0.581  0.0405  0.0788 -0.7516
 1149SOL    HW2 3283   2.719   1.996   0.568 -0.0435 -0.1900 -1.1507
 1150SOL     OW 3284   0.315   0.974   2.441  0.2104  0.3484 -0.6788
 1150SOL    HW1 3285   0.320   1.061   2.480  1.5054  0.4087 -0.9355
 1150SOL    HW2 3286   0.381   0.923   2.487 -1.8437 -1.1175  0.8555
 1151SOL     OW 3287   0.116   2.921   1.483  0.4960  0.0958  0.5595
 1151SOL    HW1 3288   0.154   2.850   1.431  0.0135  0.4257 -0.2644
 1151SOL    HW2 3289   0.191   2.970   1.516  1.1028  3.2102 -4.3399
 1152SOL     OW 3290   0.255   0.754   0.350 -0.4661 -0.1373  0.8369
 1152SOL    HW1 3291   0.297   0.673   0.322 -0.6925  0.3334 -0.9672
 1152SOL    HW2 3292   0.324   0.820   0.345 -0.5205 -0.0353  1.3873
 1153SOL     OW 3293   0.390   2.045   3.088 -0.5855 -0.1471 -0.0843
 1153SOL    HW1 3294   0.452   1.972   3.086 -0.2866  0.1015 -0.0230
 1153SOL    HW2 3295   0.315   2.014   3.038 -0.2380 -0.2998 -0.5236
 1154SOL     OW 3296   0.786   3.404   3.684  0.3362  0.2324 -0.4446
 1154SOL    HW1 3297   0.723   3.461   3.640  2.7267  2.8783 -0.7174
 1154SOL    HW2 3298   0.801   3.446   3.769  1.5824 -0.4325 -0.3131
 1155SOL     OW 3299   1.955   0.324   0.543  0.1509 -0.4578  0.1806
 1155SOL    HW1 3300   1.986   0.304   0.454  0.8187 -1.6350  0.6469
 1155SOL    HW2 3301   1.917   0.242   0.574 -0.4382  0.0535  0.8493
 1156SOL     OW 3302   3.264   0.150   3.321 -0.0362 -0.0258  0.1908
 1156SOL    HW1 3303   3.235   0.060   3.306 -0.4168  0.3828 -1.8412
 1156SOL    HW2 3304   3.268   0.189   3.233  1.7629  1.4531  0.8603
 1157SOL     OW 3305   0.618   1.356   1.932  0.2685 -0.3355  0.3196
 1157SOL    HW1 3306   0.562   1.432   1.920  1.0116  0.1139 -0.4054
 1157SOL    HW2 3307   0.685   1.364   1.864  1.0652 -0.9893  0.9956
 1158SOL     OW 3308   1.482   1.998   2.441 -0.1230 -0.4416  0.2707
 1158SOL    HW1 3309   1.517   2.080   2.475  0.9605 -0.8109  0.0674
 1158SOL    HW2 3310   1.472   2.014   2.347  1.0170 -0.8574  0.0713
 1159SOL     OW 3311   2.097   0.369   2.284 -0.8261 -0.3400 -0.1434
 1159SOL    HW1 3312   2.169   0.306   2.276 -0.1478  0.0971  1.8549
 1159SOL    HW2 3313   2.131   0.448   2.243 -0.0517 -0.0770  0.9548
 1160SOL     OW 3314   1.763   3.022   1.174  0.0252  0.0923 -0.7107
 1160SOL    HW1 3315   1.738   2.940   1.216 -1.1493  1.9266  2.5355
 1160SOL    HW2 3316   1.858   3.025   1.181  0.1248 -1.1844 -1.3233
 1161SOL     OW 3317   3.050   3.253   2.877  0.3294  0.0543  0.1005
 1161SOL    HW1 3318   3.095   3.172   2.902  1.8616  1.2574  1.4406
 1161SOL    HW2 3319   3.065   3.313   2.950 -1.8334  1.1832 -0.3027
 1162SOL     OW 3320   1.362   2.326   0.892 -0.2776 -0.2754  0.2107
 1162SOL    HW1 3321   1.429   2.375   0.939 -0.5565  1.0325 -0.6966
 1162SOL    HW2 3322   1.284   2.381   0.896 -0.8018 -0.9656 -0.2351
 1163SOL     OW 3323   2.033   3.163   2.137  0.0080 -0.2157  0.5231
 1163SOL    HW1 3324   2.119   3.144   2.100  0.4326 -0.1484  1.4623
 1163SOL    HW2 3325   2.034   3.123   2.224 -0.5836  0.5359  0.8963
 1164SOL     OW 3326   0.143   1.192   2.919 -0.1767 -0.7977  0.1114
 1164SOL    HW1 3327   0.120   1.280   2.947  0.1035 -0.2111 -1.4263
 1164SOL    HW2 3328   0.061   1.155   2.885 -0.0005 -0.5908 -0.5640
 1165SOL     OW 3329   1.080   2.223   3.017  0.5530 -0.0277  0.0845
 1165SOL    HW1 3330   1.146   2.163   2.983  0.7731  1.0007 -1.3701
 1165SOL    HW2 3331   1.130   2.297   3.050  0.2082 -0.0649  0.7218
 1166SOL     OW 3332   0.263   1.299   1.913 -0.1142  0.5580 -0.5082
 1166SOL    HW1 3333   0.223   1.330   1.832 -0.8204  1.3529  0.1345
 1166SOL    HW2 3334   0.326   1.366   1.936 -1.1551  1.2100  0.5189
 1167SOL     OW 3335   1.271   3.100   3.259  0.0771 -0.2283  0.8346
 1167SOL    HW1 3336   1.283   3.089   3.353 -2.1408 -0.6303  1.1265
 1167SOL    HW2 3337   1.277   3.194   3.245 -0.5136 -0.0771  1.5369
 1168SOL     OW 3338   1.111   3.547   2.858  0.0067 -0.1697 -0.0014
 1168SOL    HW1 3339   1.037   3.516   2.806  0.5846 -2.7151  0.5237
 1168SOL    HW2 3340   1.083   3.533   2.949  0.1505  1.3741  0.3048
 1169SOL     OW 3341   1.543   0.832   0.744 -0.1779 -0.1575 -0.5433
 1169SOL    HW1 3342   1.476   0.773   0.779 -1.7776  2.1707  0.5998
 1169SOL    HW2 3343   1.583   0.872   0.821  2.2449 -1.0996 -1.2266
 1170SOL     OW 3344   2.488   3.336   3.863  0.2178  0.4965 -0.0038
 1170SOL    HW1 3345   2.448   3.345   3.777  0.4949 -0.7046 -0.2699
 1170SOL    HW2 3346   2.582   3.348   3.848  0.2287  0.6804  0.1976
 1171SOL     OW 3347   3.113   1.113   2.304  0.0565 -0.0843  0.0847
 1171SOL    HW1 3348   3.203   1.092   2.279  0.1553  0.1526  0.2366
 1171SOL    HW2 3349   3.097   1.061   2.383  0.8434  1.5577  1.3937
 1172SOL     OW 3350   2.213   0.162   3.353 -0.2754 -0.5026  0.1643
 1172SOL    HW1 3351   2.217   0.121   3.266  0.8206  0.1654 -0.1196
 1172SOL    HW2 3352   2.199   0.255   3.335 -1.0797 -0.4988  0.7502
 1173SOL     OW 3353   2.562   3.067   0.596 -0.3401 -0.4083  0.1258
 1173SOL    HW1 3354   2.583   3.096   0.507 -0.2186  0.6877  0.4913
 1173SOL    HW2 3355   2.616   2.990   0.610  0.5450  0.1220 -0.3236
 1174SOL     OW 3356   0.335   1.901   1.236  0.0664 -0.2647 -0.0971
 1174SOL    HW1 3357   0.286   1.922   1.156  1.0054 -1.2729 -0.9714
 1174SOL    HW2 3358   0.301   1.815   1.262  1.0550 -0.7772 -0.4713
 1175SOL     OW 3359   3.591   4.011   1.647 -0.0402  0.5083  0.1216
 1175SOL    HW1 3360   3.519   3.995   1.586  1.0157 -1.7952 -0.6420
 1175SOL    HW2 3361   3.651   4.069   1.599  1.2398 -2.0145 -1.5589
 1176SOL     OW 3362   3.406   3.911   0.137 -0.1861 -0.1242 -0.2019
 1176SOL    HW1 3363   3.430   3.996   0.174 -1.7871 -0.3180  1.4481
 1176SOL    HW2 3364   3.338   3.931   0.073 -1.5385 -0.2047  1.1469
 1177SOL     OW 3365   3.991   1.542   2.930  0.2704  0.1827 -0.0705
 1177SOL    HW1 3366   4.001   1.624   2.881  0.5304  0.4085  0.3546
 1177SOL    HW2 3367   3.935   1.487   2.875  0.7479  0.3485 -0.7315
 1178SOL     OW 3368   2.046   3.001   0.218 -0.3136  0.1779  0.2817
 1178SOL    HW1 3369   2.041   3.061   0.143 -2.2662 -1.6975 -1.2381
 1178SOL    HW2 3370   2.135   2.966   0.216 -0.1575  0.6079 -0.8071
 1179SOL     OW 3371   1.853   0.107   1.084  0.1792  0.4876  0.1128
 1179SOL    HW1 3372   1.805   0.059   1.016  0.2967  1.6511 -0.8078
 1179SOL    HW2 3373   1.789   0.167   1.120  0.6434  1.2819 -0.3668
 1180SOL     OW 3374   2.404   0.151   1.107 -0.0282 -0.1060 -0.3744
 1180SOL    HW1 3375   2.324   0.100   1.096 -0.4933  0.3047  0.9255
 1180SOL    HW2 3376   2.395   0.191   1.193  1.2289  0.5784 -0.5409
 1181SOL     OW 3377   1.209   3.190   1.569 -0.4804  0.0589 -0.2829
 1181SOL    HW1 3378   1.183   3.131   1.639 -1.4009  0.5638 -0.1785
 1181SOL    HW2 3379   1.155   3.164   1.494 -0.4629  0.3767 -0.4100
 1182SOL     OW 3380   1.179   1.580   1.223  0.4420 -0.5521  0.0430
 1182SOL    HW1 3381   1.101   1.571   1.277  0.8857 -1.1226  0.6005
 1182SOL    HW2 3382   1.147   1.617   1.140 -0.5948 -1.8593 -0.1681
 1183SOL     OW 3383   0.443   3.494   3.937  0.6770  0.0059  0.5554
 1183SOL    HW1 3384   0.489   3.463   4.015 -0.3728 -1.2432  0.7092
 1183SOL    HW2 3385   0.406   3.579   3.963 -0.2576 -0.7141  1.6782
 1184SOL     OW 3386   2.333   0.907   2.111 -0.1709 -0.0049  0.3374
 1184SOL    HW1 3387   2.333   0.866   2.025  1.4001  1.6193 -0.5055
 1184SOL    HW2 3388   2.333   0.834   2.173 -1.8037 -1.2118 -0.9822
 1185SOL     OW 3389   1.439   0.027   2.031  0.0321  0.4292 -0.6664
 1185SOL    HW1 3390   1.377   0.026   2.105  0.4686  0.7333 -0.2921
 1185SOL    HW2 3391   1.390  -0.013   1.959 -0.2693 -0.2020 -0.1280
 1186SOL     OW 3392   0.581   3.654   2.369 -0.5658  0.2399 -0.0820
 1186SOL    HW1 3393   0.567   3.578   2.312  1.0859 -0.5988  0.5556
 1186SOL    HW2 3394   0.621   3.719   2.311  3.2060 -1.3733  0.3756
 1187SOL     OW 3395   1.980   2.528   2.069  0.1042  0.0883  0.6500
 1187SOL    HW1 3396   2.068   2.496   2.048 -0.6340 -0.1470 -2.7351
 1187SOL    HW2 3397   1.994   2.618   2.100  1.6506 -0.8607  2.9574
 1188SOL     OW 3398   0.811   0.764   3.523  0.2747 -0.0892 -0.1607
 1188SOL    HW1 3399   0.730   0.715   3.536 -1.1251  1.5439 -2.1354
 1188SOL    HW2 3400   0.877   0.696   3.507 -0.8858 -1.4303  0.5455
 1189SOL     OW 3401   3.841   2.616   3.156 -0.3297 -0.2130  0.2433
 1189SOL    HW1 3402   3.849   2.704   3.119 -1.5621 -0.4165 -0.5771
 1189SOL    HW2 3403   3.874   2.558   3.088 -2.9432 -0.6176 -0.7874
 1190SOL     OW 3404   2.521   2.772   3.805  0.1830  0.2403 -0.8199
 1190SOL    HW1 3405   2.454   2.804   3.744 -0.2735 -0.6223 -0.7852
 1190SOL    HW2 3406   2.601   2.769   3.753 -0.1090 -0.0691 -1.2589
 1191SOL     OW 3407   3.446   3.718   1.240 -0.6359  0.0636 -0.0738
 1191SOL    HW1 3408   3.413   3.777   1.172  0.4394  1.0740  0.2460
 1191SOL    HW2 3409   3.407   3.751   1.321 -0.3368  0.0975  0.0571
 1192SOL     OW 3410   1.986   1.605   0.965  0.2907 -0.2600 -0.1563
 1192SOL    HW1 3411   2.036   1.628   1.043 -0.0348 -0.6660  0.1741
 1192SOL    HW2 3412   2.053   1.590   0.898  0.5597  0.3796 -0.0382
 1193SOL     OW 3413   2.872   1.466   2.067  0.2016 -0.1635  0.2449
 1193SOL    HW1 3414   2.940   1.448   2.132  0.2426 -0.6932  0.0587
 1193SOL    HW2 3415   2.918   1.466   1.983  0.1278  0.4022  0.2007
 1194SOL     OW 3416   3.497   3.988   3.717  1.1210 -0.9063 -0.3052
 1194SOL    HW1 3417   3.473   4.076   3.690 -0.7114 -1.2146  0.3123
 1194SOL    HW2 3418   3.461   3.931   3.648 -1.1289 -1.3882  1.1297
 1195SOL     OW 3419   0.703   1.131   2.576  0.1155  0.1004  0.7890
 1195SOL    HW1 3420   0.683   1.153   2.667  1.6451 -0.9501  1.4242
 1195SOL    HW2 3421   0.679   1.210   2.527  0.1012  1.0337  2.2106
 1196SOL     OW 3422   2.938   4.044   1.977 -0.4352 -0.6496  0.1622
 1196SOL    HW1 3423   2.930   4.072   2.068  2.5966 -0.9039  0.6141
 1196SOL    HW2 3424   3.021   4.082   1.947 -2.4166  1.4957 -3.3542
 1197SOL     OW 3425   1.128   2.252   1.690 -0.0985 -0.0135  0.2612
 1197SOL    HW1 3426   1.125   2.202   1.609  1.8233 -1.2038  0.8538
 1197SOL    HW2 3427   1.037   2.258   1.718 -0.5328 -1.9569 -0.5886
 1198SOL     OW 3428   1.662   1.710   1.318 -0.0460 -0.1046  0.0205
 1198SOL    HW1 3429   1.601   1.779   1.343  0.3143  0.8035 -1.4816
 1198SOL    HW2 3430   1.688   1.732   1.228  2.7297 -0.2473  0.6814
 1199SOL     OW 3431   3.810   2.014   0.854 -0.6165  0.2565 -0.8103
 1199SOL    HW1 3432   3.781   2.105   0.853 -1.2215  0.1294  1.1360
 1199SOL    HW2 3433   3.775   1.977   0.772 -1.4176  1.4616 -1.0365
 1200SOL     OW 3434   1.168   3.277   0.394 -0.2157 -0.3159 -0.0931
 1200SOL    HW1 3435   1.149   3.252   0.304  0.1127 -3.3807  0.5609
 1200SOL    HW2 3436   1.263   3.269   0.402 -0.1113  1.0169  0.2820
 1201SOL     OW 3437   1.716   2.859   2.700 -0.1976  0.1641 -0.1472
 1201SOL    HW1 3438   1.649   2.917   2.736  1.7974  1.2523  2.1450
 1201SOL    HW2 3439   1.760   2.912   2.633 -0.3679  0.1706 -0.2537
 1202SOL     OW 3440   3.533   2.975   1.310  0.6620 -0.5424  0.4532
 1202SOL    HW1 3441   3.521   2.889   1.350  0.8171  0.0446  1.8075
 1202SOL    HW2 3442   3.601   2.961   1.244 -0.9885 -1.9638 -1.0846
 1203SOL     OW 3443   1.880   3.661   2.167  0.0956 -0.0427 -0.3073
 1203SOL    HW1 3444   1.917   3.573   2.166  0.1930 -0.0055  0.1301
 1203SOL    HW2 3445   1.941   3.712   2.220  1.2443  0.8146 -2.2936
 1204SOL     OW 3446   0.795   3.571   3.045  0.0323  0.0930  0.6092
 1204SOL    HW1 3447   0.803   3.568   3.140  0.0557 -0.0708  0.6024
 1204SOL    HW2 3448   0.720   3.629   3.029  1.2663  1.7536  0.6692
 1205SOL     OW 3449   0.420   1.353   3.058  0.1045  0.4877  0.3521
 1205SOL    HW1 3450   0.331   1.378   3.035 -0.1688 -3.0431 -3.5872
 1205SOL    HW2 3451   0.476   1.413   3.009 -0.2360  0.2603 -0.3198
 1206SOL     OW 3452   0.331   2.348   2.571  0.6895  0.2488  0.4060
 1206SOL    HW1 3453   0.371   2.319   2.652  1.7488 -0.1717 -0.2394
 1206SOL    HW2 3454   0.335   2.272   2.513  2.5428  1.2848 -0.9588
 1207SOL     OW 3455   2.403   2.607   0.899 -0.3152  0.0116 -0.1810
 1207SOL    HW1 3456   2.326   2.652   0.933 -0.2030 -0.9238  1.4169
 1207SOL    HW2 3457   2.370   2.557   0.824 -1.7161 -1.7961  1.5427
 1208SOL     OW 3458   2.591   2.838   2.982 -0.2654  0.3890 -0.9663
 1208SOL    HW1 3459   2.645   2.883   3.047 -1.2132  0.9797 -0.5743
 1208SOL    HW2 3460   2.516   2.896   2.968 -0.9455 -0.5450 -1.2995
 1209SOL     OW 3461   3.225   1.608   2.945  0.1786 -0.0056 -0.2341
 1209SOL    HW1 3462   3.155   1.665   2.913 -0.6232 -1.3051 -0.8998
 1209SOL    HW2 3463   3.274   1.583   2.867  0.7645  0.0747  0.0976
 1210SOL     OW 3464   2.176   3.096   0.884 -0.2954 -0.1016 -0.1706
 1210SOL    HW1 3465   2.089   3.068   0.857 -0.1303 -0.1795 -0.6387
 1210SOL    HW2 3466   2.162   3.145   0.965 -0.8207  0.2334 -0.4584
 1211SOL     OW 3467   3.281   3.202   0.093  0.2622  0.0736 -0.6960
 1211SOL    HW1 3468   3.193   3.238   0.101  0.5895  0.6859  0.3204
 1211SOL    HW2 3469   3.299   3.201  -0.001 -1.1120 -0.7756 -0.9753
 1212SOL     OW 3470   1.097   3.113   2.839 -0.1796  0.1877 -0.6243
 1212SOL    HW1 3471   1.154   3.047   2.799 -0.6275 -0.5378 -0.0915
 1212SOL    HW2 3472   1.014   3.105   2.793 -0.1801  0.5146 -0.6839
 1213SOL     OW 3473   2.002   3.429   3.787  0.0513  0.1606  0.6250
 1213SOL    HW1 3474   2.077   3.372   3.770  0.4223  0.6192  0.7184
 1213SOL    HW2 3475   1.928   3.369   3.797  0.4885 -0.3234  0.9824
 1214SOL     OW 3476   0.696   2.057   0.711  0.0658  0.0090  0.6797
 1214SOL    HW1 3477   0.760   1.987   0.716 -0.6537 -0.5813  1.9848
 1214SOL    HW2 3478   0.683   2.085   0.802 -0.0189  1.5108  0.2371
 1215SOL     OW 3479   2.922   2.331   0.057  0.2106  0.2942  0.6483
 1215SOL    HW1 3480   2.995   2.307  -0.001 -2.0617 -0.8246 -1.9140
 1215SOL    HW2 3481   2.898   2.250   0.102  0.7379  0.7453  1.8026
 1216SOL     OW 3482   1.746   2.176   3.508  0.0761  0.1699 -0.0979
 1216SOL    HW1 3483   1.716   2.262   3.481  0.9376  0.1709 -1.1246
 1216SOL    HW2 3484   1.806   2.192   3.581 -0.0808  0.4037 -0.0219
 1217SOL     OW 3485   2.144   1.460   2.660 -0.0183 -0.3430 -0.0721
 1217SOL    HW1 3486   2.168   1.479   2.751  0.1431 -1.1732  0.0672
 1217SOL    HW2 3487   2.100   1.540   2.629  0.4399  0.1566  0.5497
 1218SOL     OW 3488   3.616   3.250   1.093  0.3558 -0.1347  0.7062
 1218SOL    HW1 3489   3.667   3.329   1.074 -2.3458  1.5692 -0.0579
 1218SOL    HW2 3490   3.604   3.251   1.188  0.3250  0.3854  0.6977
 1219SOL     OW 3491   0.834   2.197   0.503  0.2620  0.2807  0.4862
 1219SOL    HW1 3492   0.894   2.129   0.535  0.3534  0.5189  0.8293
 1219SOL    HW2 3493   0.749   2.171   0.538  0.1466 -0.0981 -0.0629
 1220SOL     OW 3494   0.582   2.093   1.457  0.2148 -0.2494 -0.4401
 1220SOL    HW1 3495   0.567   2.108   1.550 -1.9194  1.2113 -0.9318
 1220SOL    HW2 3496   0.654   2.151   1.434  1.0309 -0.9225  0.3574
 1221SOL     OW 3497   1.120   3.529   3.137  0.0748 -0.8080  0.1089
 1221SOL    HW1 3498   1.200   3.560   3.179 -0.4166 -0.0588  0.5016
 1221SOL    HW2 3499   1.055   3.597   3.154 -0.3848 -0.9285 -1.0738
 1222SOL     OW 3500   1.360   2.393   0.560  0.2513 -0.2718  0.1035
 1222SOL    HW1 3501   1.397   2.402   0.472 -0.8056  0.0147 -0.3323
 1222SOL    HW2 3502   1.361   2.299   0.576  2.2820 -0.2103  0.6298
 1223SOL     OW 3503   1.856   2.170   3.188 -0.1794 -0.0678  0.2773
 1223SOL    HW1 3504   1.919   2.175   3.260  0.5449  0.3947 -0.3770
 1223SOL    HW2 3505   1.806   2.090   3.206  0.0032  0.0278  1.2742
 1224SOL     OW 3506   3.215   2.404   0.643 -0.4884  0.1060  0.5761
 1224SOL    HW1 3507   3.257   2.456   0.575 -0.2462  0.2954  0.8733
 1224SOL    HW2 3508   3.192   2.322   0.599 -2.6243  1.1690 -0.4289
 1225SOL     OW 3509   0.943   2.676   2.224 -0.2372  0.1902 -0.3622
 1225SOL    HW1 3510   0.925   2.756   2.175 -0.3057  0.1081 -0.4717
 1225SOL    HW2 3511   0.858   2.635   2.235 -0.2998  0.5023  0.3391
 1226SOL     OW 3512   2.957   0.139   2.286  0.0805  0.3964  0.3304
 1226SOL    HW1 3513   3.043   0.167   2.319  1.4834 -2.9268 -0.0735
 1226SOL    HW2 3514   2.949   0.048   2.314 -1.0845 -0.9670 -3.6849
 1227SOL     OW 3515   1.408   0.620   0.967  0.2146 -0.3159  0.7142
 1227SOL    HW1 3516   1.387   0.537   0.924 -0.5509  0.2483 -0.0392
 1227SOL    HW2 3517   1.503   0.618   0.978  0.3368 -0.8495 -0.2584
 1228SOL     OW 3518   3.442   1.367   3.196 -0.4446  0.1144  0.0632
 1228SOL    HW1 3519   3.483   1.287   3.229 -0.0476  0.2460 -0.1006
 1228SOL    HW2 3520   3.511   1.433   3.202 -0.9255  0.5664  0.6833
 1229SOL     OW 3521   2.625   2.352   1.446  0.1929 -0.1282  0.5684
 1229SOL    HW1 3522   2.551   2.413   1.442  1.0378  0.9846  1.3155
 1229SOL    HW2 3523   2.585   2.265   1.434 -1.2430  0.4342  1.0548
 1230SOL     OW 3524   2.641   1.576   3.662  0.7643  0.2628  0.2444
 1230SOL    HW1 3525   2.549   1.595   3.681 -0.0909 -0.7624 -2.4830
 1230SOL    HW2 3526   2.662   1.503   3.721  0.0993  0.9922  1.4336
 1231SOL     OW 3527   3.076   3.579   3.207  0.3157 -0.2043 -0.3619
 1231SOL    HW1 3528   3.128   3.624   3.140 -1.6129  0.0292 -1.7843
 1231SOL    HW2 3529   2.993   3.627   3.210 -0.2706 -1.2335  1.0050
 1232SOL     OW 3530   3.973   3.773   1.386  0.1239  0.0894 -0.1486
 1232SOL    HW1 3531   3.949   3.682   1.404 -0.0216 -0.5212 -2.9949
 1232SOL    HW2 3532   3.984   3.777   1.291  2.4884  2.5042  0.1004
 1233SOL     OW 3533   0.870   2.821   1.970  0.1319 -0.1130 -0.4434
 1233SOL    HW1 3534   0.902   2.868   1.892 -0.0624 -1.3437 -1.2955
 1233SOL    HW2 3535   0.775   2.820   1.959  0.1939 -1.7357 -1.0879
 1234SOL     OW 3536   2.922   0.423   1.398 -0.0191 -0.7105  0.3481
 1234SOL    HW1 3537   2.953   0.335   1.420 -2.7391 -1.6130  1.0195
 1234SOL    HW2 3538   2.884   0.414   1.311 -0.3246 -0.2474  0.4287
 1235SOL     OW 3539   3.441   3.291   2.421  0.0287 -0.4077 -1.0729
 1235SOL    HW1 3540   3.384   3.220   2.451 -0.2495 -1.0007 -2.8445
 1235SOL    HW2 3541   3.425   3.363   2.482 -1.5066 -1.0534 -0.6660
 1236SOL     OW 3542   0.072   2.153   2.197  0.0668  0.3408  0.1198
 1236SOL    HW1 3543   0.058   2.239   2.159 -0.3115  1.1590  2.0199
 1236SOL    HW2 3544  -0.002   2.140   2.256  0.7767 -0.7731  0.7479
 1237SOL     OW 3545   0.162   2.541   1.671 -0.1255 -0.2798 -0.4071
 1237SOL    HW1 3546   0.119   2.547   1.586 -0.4632 -0.8776 -0.2883
 1237SOL    HW2 3547   0.239   2.486   1.656 -0.4432 -0.7830 -0.2404
 1238SOL     OW 3548   0.186   1.343   1.373 -0.4703 -0.1812 -0.1787
 1238SOL    HW1 3549   0.255   1.381   1.427 -0.7092  0.2947 -0.2068
 1238SOL    HW2 3550   0.216   1.254   1.356  1.6678  0.8992 -2.7860
 1239SOL     OW 3551   1.193   0.462   3.753 -0.0062 -0.9197  0.1982
 1239SOL    HW1 3552   1.192   0.533   3.818  0.9406 -0.9325  0.2444
 1239SOL    HW2 3553   1.163   0.385   3.802  1.1706 -1.0371  0.7789
 1240SOL     OW 3554   2.862   1.796   1.771  0.3584 -0.2895 -0.3920
 1240SOL    HW1 3555   2.903   1.718   1.732 -0.6499 -0.9873 -0.0963
 1240SOL    HW2 3556   2.803   1.761   1.837  0.5057  0.7845  0.3268
 1241SOL     OW 3557   0.948   3.447   0.689 -0.0385 -0.2255  0.1241
 1241SOL    HW1 3558   0.856   3.427   0.673 -0.0103 -0.6697  0.5027
 1241SOL    HW2 3559   0.994   3.366   0.667  0.1316 -0.4294  1.1617
 1242SOL     OW 3560   3.416   1.686   3.125  0.3263  0.4034  0.4983
 1242SOL    HW1 3561   3.342   1.650   3.077  1.0828  0.9939 -1.1927
 1242SOL    HW2 3562   3.379   1.756   3.179 -0.5412 -0.2805  0.8025
 1243SOL     OW 3563   1.771   0.033   3.532  0.4003 -0.4693  0.3494
 1243SOL    HW1 3564   1.763  -0.052   3.489  2.5199  0.3905 -1.8602
 1243SOL    HW2 3565   1.681   0.062   3.544 -0.3271 -1.8391 -1.3626
 1244SOL     OW 3566   2.694   0.077   2.625 -0.3678 -0.2366 -0.1397
 1244SOL    HW1 3567   2.702   0.144   2.557  1.3747 -0.3005 -0.0378
 1244SOL    HW2 3568   2.618   0.025   2.599 -0.3559  0.3706 -1.4586
 1245SOL     OW 3569   3.510   2.198   0.164  0.1822 -0.0933 -0.6703
 1245SOL    HW1 3570   3.423   2.169   0.137 -0.8870  0.9420  1.3783
 1245SOL    HW2 3571   3.512   2.182   0.259  2.1623  0.1027 -0.6308
 1246SOL     OW 3572   0.709   1.681   2.010  0.2038  0.1570 -0.2878
 1246SOL    HW1 3573   0.699   1.648   1.920 -0.9084 -0.0714 -0.1027
 1246SOL    HW2 3574   0.628   1.729   2.027  0.7947  0.9798  0.2882
 1247SOL     OW 3575   3.818   1.896   1.865 -0.1206  0.3215  0.6828
 1247SOL    HW1 3576   3.858   1.983   1.854 -0.7887  0.5019 -0.4410
 1247SOL    HW2 3577   3.875   1.837   1.817 -0.4491  0.3686  0.2290
 1248SOL     OW 3578   1.828   2.868   1.722 -0.1493  0.0316  0.0484
 1248SOL    HW1 3579   1.747   2.866   1.772 -0.5070  3.0271 -0.2108
 1248SOL    HW2 3580   1.872   2.949   1.750  0.3376  1.0870 -3.2836
 1249SOL     OW 3581   2.676   0.797   3.407  0.1950 -0.2806 -0.0888
 1249SOL    HW1 3582   2.602   0.765   3.355  1.3206 -1.0994 -1.2480
 1249SOL    HW2 3583   2.636   0.854   3.473 -1.3538  0.1889 -1.3663
 1250SOL     OW 3584   2.778   3.520   4.070  0.2469  0.2509 -0.0217
 1250SOL    HW1 3585   2.764   3.429   4.098 -0.4823  0.8191  1.5631
 1250SOL    HW2 3586   2.872   3.534   4.080  0.1225  0.1964  1.4929
 1251SOL     OW 3587   3.065   1.598   2.388 -0.1526  0.2969  0.0538
 1251SOL    HW1 3588   3.026   1.639   2.311 -0.6541  0.4853  0.4079
 1251SOL    HW2 3589   3.136   1.544   2.352 -1.3450 -0.8449 -0.7081
 1252SOL     OW 3590   0.731   2.326   3.850  0.1255 -0.4665 -0.2409
 1252SOL    HW1 3591   0.740   2.238   3.815  0.7346 -0.8184  0.7355
 1252SOL    HW2 3592   0.787   2.380   3.794 -1.2157 -0.4385 -1.6178
 1253SOL     OW 3593   2.725   1.278   0.595  0.0736 -0.3574 -0.0665
 1253SOL    HW1 3594   2.713   1.203   0.653 -0.3138  0.0859  0.4346
 1253SOL    HW2 3595   2.814   1.268   0.561  0.5497 -0.2935  1.0929
 1254SOL     OW 3596   0.883   3.073   2.647 -0.2360 -0.0059 -0.3689
 1254SOL    HW1 3597   0.838   3.020   2.713 -1.1732  0.3857 -0.6811
 1254SOL    HW2 3598   0.917   3.009   2.584 -0.4234 -0.3004 -0.1737
 1255SOL     OW 3599   3.396   1.112   3.587 -0.0919 -0.3372 -0.9170
 1255SOL    HW1 3600   3.399   1.043   3.653  1.0930  0.0001 -0.6085
 1255SOL    HW2 3601   3.386   1.193   3.637  2.4123  0.0860 -1.0102
 1256SOL     OW 3602   0.452   0.386   0.911 -0.1409  0.2189 -0.3284
 1256SOL    HW1 3603   0.429   0.368   0.819  0.0672 -0.0869 -0.3226
 1256SOL    HW2 3604   0.466   0.300   0.949  3.5071  0.3883 -0.9600
 1257SOL     OW 3605   2.328   2.857   3.618 -0.1985 -0.0969  0.5137
 1257SOL    HW1 3606   2.251   2.912   3.628 -1.9928 -2.1106 -1.1051
 1257SOL    HW2 3607   2.374   2.893   3.542 -0.2541  0.3332  0.6818
 1258SOL     OW 3608   3.639   3.994   2.657  0.1100  0.1435  0.2922
 1258SOL    HW1 3609   3.626   4.054   2.730  1.8434 -0.7788  1.3668
 1258SOL    HW2 3610   3.588   3.917   2.680 -0.5816  0.4334 -0.2003
 1259SOL     OW 3611   3.418   0.821   1.060  0.2340 -0.4980 -0.0604
 1259SOL    HW1 3612   3.503   0.849   1.027  0.5830 -1.4299 -0.0032
 1259SOL    HW2 3613   3.402   0.737   1.016 -0.9294 -0.0630 -0.5099
 1260SOL     OW 3614   2.196   3.181   1.426  0.4255 -0.2346  0.4046
 1260SOL    HW1 3615   2.149   3.168   1.509 -1.8756 -0.6301 -0.8745
 1260SOL    HW2 3616   2.174   3.270   1.399 -0.7551 -0.8694 -0.8566
 1261SOL     OW 3617   4.018   1.694   1.335 -0.3678 -0.4284  0.3004
 1261SOL    HW1 3618   4.070   1.756   1.387  0.3963 -1.1061  0.3399
 1261SOL    HW2 3619   3.930   1.699   1.372 -0.6392  1.5889 -0.5107
 1262SOL     OW 3620   1.295   3.991   0.690  0.5325 -0.7678  0.2539
 1262SOL    HW1 3621   1.203   3.975   0.710 -0.3640  1.7280 -1.4302
 1262SOL    HW2 3622   1.307   3.952   0.603  1.0077 -0.9068  0.3821
 1263SOL     OW 3623   0.632   3.987   1.686 -0.0371 -0.0113 -0.2419
 1263SOL    HW1 3624   0.613   4.017   1.598 -1.6665 -1.6795 -0.5260
 1263SOL    HW2 3625   0.626   4.065   1.740 -0.4984  0.7452 -1.4129
 1264SOL     OW 3626   2.331   0.444   1.135  0.6598 -0.1863  0.0553
 1264SOL    HW1 3627   2.320   0.442   1.040 -2.6601  0.3663  0.2878
 1264SOL    HW2 3628   2.292   0.363   1.166 -1.4778  1.1224  1.0502
 1265SOL     OW 3629   1.970   1.241   2.717 -0.0269  0.0381 -0.0836
 1265SOL    HW1 3630   2.017   1.321   2.692 -1.7732  1.1495  0.0053
 1265SOL    HW2 3631   1.981   1.235   2.811 -1.4646  1.2843  0.1989
 1266SOL     OW 3632   3.261   3.020   1.738  0.6708  0.0318 -0.2979
 1266SOL    HW1 3633   3.273   3.036   1.644 -0.4663 -2.3131 -0.9119
 1266SOL    HW2 3634   3.168   3.033   1.752  0.9161  0.8445  0.6410
 1267SOL     OW 3635   3.444   1.255   2.129  0.4253  0.2282  0.3883
 1267SOL    HW1 3636   3.415   1.179   2.180  0.9879 -1.1365 -1.2699
 1267SOL    HW2 3637   3.364   1.290   2.091  0.2842 -0.1163  0.3665
 1268SOL     OW 3638   2.890   3.632   2.962 -0.0616  0.4284 -0.0952
 1268SOL    HW1 3639   2.865   3.675   3.044  0.1732 -1.5421  1.0856
 1268SOL    HW2 3640   2.946   3.695   2.918 -0.6704  1.7749  0.9727
 1269SOL     OW 3641   3.493   3.491   0.741  0.0439  0.3567 -0.3507
 1269SOL    HW1 3642   3.481   3.508   0.834 -0.0457 -1.9922  0.1384
 1269SOL    HW2 3643   3.420   3.535   0.699 -0.5325  0.5513  0.8095
 1270SOL     OW 3644   3.288   3.577   1.998 -0.5492  0.0423 -0.4673
 1270SOL    HW1 3645   3.364   3.617   2.040 -2.4074  0.8359  2.3763
 1270SOL    HW2 3646   3.309   3.484   1.994  0.4958  0.2205  0.4780
 1271SOL     OW 3647   3.152   1.860   4.035 -0.5197  0.3839  0.0843
 1271SOL    HW1 3648   3.072   1.848   4.087 -1.3369  0.0810 -1.2267
 1271SOL    HW2 3649   3.123   1.848   3.944  0.7294  1.5242 -0.5044
 1272SOL     OW 3650   3.724   1.597   2.225 -0.1187  0.0099  0.8088
 1272SOL    HW1 3651   3.739   1.511   2.186  0.5886  0.2423  0.5610
 1272SOL    HW2 3652   3.692   1.651   2.152  2.2211  0.7364  0.2463
 1273SOL     OW 3653   1.170   2.071   1.479 -0.3672  0.4235 -0.4616
 1273SOL    HW1 3654   1.077   2.057   1.497  0.3892 -1.1046  3.0505
 1273SOL    HW2 3655   1.191   2.006   1.412 -1.1154 -2.0550  1.5487
 1274SOL     OW 3656   1.860   2.724   1.266 -0.4532  0.3824 -0.4392
 1274SOL    HW1 3657   1.906   2.768   1.337  0.4808 -0.1753 -0.6822
 1274SOL    HW2 3658   1.837   2.638   1.302  0.4129 -0.0680 -0.9419
 1275SOL     OW 3659   0.106   2.547   2.546  0.2014 -0.5805  0.1862
 1275SOL    HW1 3660   0.126   2.641   2.548  1.1132 -0.7587 -0.1059
 1275SOL    HW2 3661   0.177   2.507   2.596 -1.2321 -0.9625  2.0329
 1276SOL     OW 3662   0.180   0.323   0.048 -0.1182  0.1521 -0.1340
 1276SOL    HW1 3663   0.151   0.353  -0.038 -0.8199  0.6536  0.3004
 1276SOL    HW2 3664   0.186   0.228   0.040  2.3316  0.3325 -1.4712
 1277SOL     OW 3665   3.781   3.794   2.052  0.0845  0.1495  0.4735
 1277SOL    HW1 3666   3.783   3.738   1.974  2.3561  0.2019  0.4431
 1277SOL    HW2 3667   3.862   3.773   2.099  1.2181  3.6201  0.2952
 1278SOL     OW 3668   1.379   3.606   2.600  0.0996  0.4877  0.5325
 1278SOL    HW1 3669   1.466   3.568   2.609 -0.4122 -1.4979 -1.7282
 1278SOL    HW2 3670   1.365   3.655   2.681  3.1585  0.6246  1.0890
 1279SOL     OW 3671   1.859   3.959   2.175 -0.1650  0.7318  0.2720
 1279SOL    HW1 3672   1.837   3.932   2.264  2.6327  0.3585  0.9523
 1279SOL    HW2 3673   1.797   3.911   2.119 -1.0010 -0.2116  1.9328
 1280SOL     OW 3674   1.607   0.646   3.588  0.1302 -0.7173  0.3507
 1280SOL    HW1 3675   1.540   0.584   3.558  0.1881 -0.7517  0.2912
 1280SOL    HW2 3676   1.559   0.711   3.638 -0.0412 -0.3405 -0.3001
 1281SOL     OW 3677   0.111   3.787   0.087 -0.0101 -0.2368  0.1941
 1281SOL    HW1 3678   0.055   3.854   0.125 -2.1772 -0.1815 -2.7880
 1281SOL    HW2 3679   0.068   3.705   0.107 -0.7824 -0.2519 -1.3923
 1282SOL     OW 3680   1.635   4.051   2.576 -0.7533 -0.3088  0.4774
 1282SOL    HW1 3681   1.569   4.042   2.507  0.0197  0.8729 -0.4496
 1282SOL    HW2 3682   1.649   3.961   2.606 -2.0842 -0.6950  0.0482
 1283SOL     OW 3683   1.350   1.619   0.482  0.1952  0.9932 -0.0519
 1283SOL    HW1 3684   1.303   1.649   0.560 -1.7140 -0.9268 -0.4147
 1283SOL    HW2 3685   1.395   1.539   0.510 -0.7739  0.1014 -0.9695
 1284SOL     OW 3686   0.877   0.772   3.045 -0.1811 -0.0968  0.3156
 1284SOL    HW1 3687   0.906   0.791   2.956  0.7311 -0.3617  0.5454
 1284SOL    HW2 3688   0.816   0.842   3.066  1.8653  1.7178  0.5497
 1285SOL     OW 3689   1.103   0.158   2.154 -0.2535  0.0078  0.0506
 1285SOL    HW1 3690   1.032   0.160   2.089 -0.0753  1.7826 -0.1481
 1285SOL    HW2 3691   1.068   0.207   2.229  0.5061  0.2881  0.2252
 1286SOL     OW 3692   3.250   3.817   1.423  0.3775 -0.1762  0.6820
 1286SOL    HW1 3693   3.161   3.793   1.445 -0.0530  0.0267 -0.7338
 1286SOL    HW2 3694   3.271   3.891   1.481 -0.9322  0.7745 -0.0188
 1287SOL     OW 3695   1.583   3.873   1.491  0.1743 -0.0528 -0.5249
 1287SOL    HW1 3696   1.618   3.918   1.414 -1.5222  1.0631 -0.7135
 1287SOL    HW2 3697   1.630   3.790   1.494  0.5206  0.0109 -2.5698
 1288SOL     OW 3698   0.572   0.736   2.870  0.1034  0.1318 -0.2930
 1288SOL    HW1 3699   0.509   0.664   2.870  0.8220 -0.6414 -3.0900
 1288SOL    HW2 3700   0.523   0.811   2.836 -0.2452  0.5668  1.1364
 1289SOL     OW 3701   2.456   0.090   0.123 -0.2812 -0.4550 -0.7014
 1289SOL    HW1 3702   2.454   0.124   0.034 -0.3657 -0.4129 -0.6835
 1289SOL    HW2 3703   2.451   0.167   0.179 -1.7211 -0.5506 -0.6553
 1290SOL     OW 3704   2.636   2.573   2.410 -0.2392  0.2601  0.6569
 1290SOL    HW1 3705   2.576   2.631   2.364  1.1399  0.1942 -1.3275
 1290SOL    HW2 3706   2.688   2.532   2.342  0.5414 -1.4226  2.1679
 1291SOL     OW 3707   3.264   0.220   3.051  0.1941 -0.2077 -0.4636
 1291SOL    HW1 3708   3.330   0.180   2.995 -0.7030 -2.1078 -0.2790
 1291SOL    HW2 3709   3.184   0.219   2.997 -0.8183 -2.5850  0.9092
 1292SOL     OW 3710   0.077   1.528   3.953  0.2929 -1.0344  0.2584
 1292SOL    HW1 3711   0.116   1.458   4.005  3.6941 -1.0389 -1.9788
 1292SOL    HW2 3712   0.105   1.609   3.996  0.6618 -1.0439  0.0370
 1293SOL     OW 3713   1.876   0.718   3.571  0.0065 -0.4327  0.1520
 1293SOL    HW1 3714   1.781   0.711   3.571  0.0202 -0.9189 -1.2414
 1293SOL    HW2 3715   1.904   0.667   3.647 -0.7425 -2.4408 -0.8470
 1294SOL     OW 3716   1.346   0.409   0.778  0.3978  0.5899  0.4755
 1294SOL    HW1 3717   1.390   0.326   0.797 -1.0993 -0.0479  1.3016
 1294SOL    HW2 3718   1.353   0.418   0.683  3.2343  1.0955  0.6384
 1295SOL     OW 3719   3.282   2.118   0.054 -0.7142 -0.3136 -0.5090
 1295SOL    HW1 3720   3.211   2.060   0.082 -1.0232  0.9588  1.5214
 1295SOL    HW2 3721   3.291   2.101  -0.040 -3.4758 -0.7744 -0.7353
 1296SOL     OW 3722   1.398   3.305   1.868 -0.5135  0.7925 -0.4911
 1296SOL    HW1 3723   1.386   3.322   1.962  0.9875 -1.9807  0.3253
 1296SOL    HW2 3724   1.322   3.252   1.845 -0.0440  0.0639 -0.3900
 1297SOL     OW 3725   2.706   1.538   1.527  0.5726  0.2635 -0.3742
 1297SOL    HW1 3726   2.759   1.614   1.504 -0.0077  0.7887 -0.0105
 1297SOL    HW2 3727   2.739   1.510   1.613  1.5805 -0.6401 -1.0247
 1298SOL     OW 3728   0.139   3.337   3.404 -0.4262 -0.4042  0.3959
 1298SOL    HW1 3729   0.234   3.334   3.401 -0.4303 -0.3725 -1.5095
 1298SOL    HW2 3730   0.118   3.431   3.404 -0.4121 -0.3429 -1.7853
 1299SOL     OW 3731   1.702   0.853   0.475 -0.3363 -0.0423  0.0665
 1299SOL    HW1 3732   1.789   0.815   0.488  0.4928  0.8847 -2.2007
 1299SOL    HW2 3733   1.660   0.847   0.560  2.2106  0.1324  1.4339
 1300SOL     OW 3734   0.659   0.148   0.808 -0.4304  0.3984 -0.2559
 1300SOL    HW1 3735   0.706   0.107   0.881  1.4945  1.7844 -0.6356
 1300SOL    HW2 3736   0.567   0.141   0.832  0.0290 -1.0418  1.2980
 1301SOL     OW 3737   0.901   2.344   2.635  0.5869  0.4887  0.0115
 1301SOL    HW1 3738   0.912   2.348   2.540 -1.3474  2.4131 -0.1968
 1301SOL    HW2 3739   0.952   2.267   2.661  0.8257 -0.3523 -2.6070
 1302SOL     OW 3740   0.210   0.689   3.502  0.0597 -0.4108  0.3766
 1302SOL    HW1 3741   0.215   0.688   3.406 -2.1326 -0.9016  0.1922
 1302SOL    HW2 3742   0.251   0.606   3.528 -0.2438 -0.7669 -0.2321
 1303SOL     OW 3743   3.515   0.250   1.133  0.7391  0.3060 -0.4448
 1303SOL    HW1 3744   3.454   0.280   1.066 -0.7747 -1.4363  0.0875
 1303SOL    HW2 3745   3.561   0.176   1.094 -0.6673 -1.1915  0.5982
 1304SOL     OW 3746   2.606   3.935   0.150  0.1347  0.0057 -0.3743
 1304SOL    HW1 3747   2.551   4.012   0.138 -0.9564 -0.8513 -1.0060
 1304SOL    HW2 3748   2.678   3.966   0.205  1.0983  2.1359 -2.5960
 1305SOL     OW 3749   1.334   1.718   0.076 -0.3805  0.2314  0.2171
 1305SOL    HW1 3750   1.387   1.743   0.001  1.1504  1.7885  1.7698
 1305SOL    HW2 3751   1.244   1.737   0.049  0.3082  2.7369 -0.5479
 1306SOL     OW 3752   0.290   2.280   3.083 -0.4519 -0.2994  0.2568
 1306SOL    HW1 3753   0.326   2.310   2.999 -0.7432  0.7221  0.4766
 1306SOL    HW2 3754   0.349   2.211   3.111  1.3762  1.3183  0.6050
 1307SOL     OW 3755   0.352   2.307   3.447 -0.0800 -0.2050 -0.3767
 1307SOL    HW1 3756   0.379   2.368   3.516 -0.2863 -0.0555 -0.4282
 1307SOL    HW2 3757   0.388   2.346   3.366 -0.5837  0.0805 -0.4676
 1308SOL     OW 3758   1.528   3.784   1.211  0.2007  0.5467 -0.5307
 1308SOL    HW1 3759   1.449   3.779   1.265 -0.1691  1.1091 -1.0051
 1308SOL    HW2 3760   1.547   3.693   1.188 -0.7894  0.4722 -1.0866
 1309SOL     OW 3761   2.807   1.491   1.770  0.3999 -0.0510 -0.0671
 1309SOL    HW1 3762   2.778   1.541   1.846 -0.4353  0.5619 -0.7714
 1309SOL    HW2 3763   2.770   1.404   1.783 -1.4131  0.5758 -0.6902
 1310SOL     OW 3764   3.834   2.284   0.271 -0.8401  0.3504  0.4426
 1310SOL    HW1 3765   3.768   2.215   0.266 -0.0631 -0.3482 -0.6698
 1310SOL    HW2 3766   3.794   2.359   0.228 -1.1197  0.1113  0.2866
 1311SOL     OW 3767   2.724   4.054   3.460  0.1184 -0.6040  0.1103
 1311SOL    HW1 3768   2.733   4.149   3.459 -0.2278 -0.5621  0.5169
 1311SOL    HW2 3769   2.704   4.033   3.552 -0.8464 -0.9262 -0.1697
 1312SOL     OW 3770   2.249   0.126   2.488 -0.4892 -0.2483  0.2637
 1312SOL    HW1 3771   2.321   0.175   2.528 -1.7961  1.0630  1.0992
 1312SOL    HW2 3772   2.265   0.133   2.394  0.2682  0.3265  0.4223
 1313SOL     OW 3773   2.916   3.959   2.327 -0.2572  0.5452  0.3138
 1313SOL    HW1 3774   2.822   3.951   2.311 -1.1665  0.4717  4.5519
 1313SOL    HW2 3775   2.949   3.870   2.319 -0.8046  0.3679 -0.0075
 1314SOL     OW 3776   0.381   0.180   2.617 -0.1607 -0.1707  0.1958
 1314SOL    HW1 3777   0.408   0.120   2.546 -0.9569 -1.2196  0.7467
 1314SOL    HW2 3778   0.383   0.126   2.696 -2.2566  0.1241  0.5052
 1315SOL     OW 3779   2.207   1.603   3.032 -0.7081  0.6233 -0.7755
 1315SOL    HW1 3780   2.161   1.685   3.020 -3.5552 -0.9976 -1.8145
 1315SOL    HW2 3781   2.217   1.567   2.944  0.8432 -0.0068 -0.3913
 1316SOL     OW 3782   3.191   2.338   2.788  0.3304 -0.4583 -0.4495
 1316SOL    HW1 3783   3.203   2.338   2.693  0.6495  2.1224 -0.4702
 1316SOL    HW2 3784   3.116   2.280   2.803 -0.0437 -0.5158 -2.3070
 1317SOL     OW 3785   0.186   3.052   0.019  0.3011  0.0895 -0.0457
 1317SOL    HW1 3786   0.180   3.029   0.111 -3.1974  0.1241 -0.1222
 1317SOL    HW2 3787   0.192   3.148   0.018  1.9413  0.0148  0.1058
 1318SOL     OW 3788   0.964   3.278   0.946 -0.5771  0.4307 -0.1361
 1318SOL    HW1 3789   1.029   3.217   0.980 -1.4461  0.1010  1.0232
 1318SOL    HW2 3790   0.992   3.297   0.857  1.5422  0.9576  0.6000
 1319SOL     OW 3791   0.545   3.942   3.236  0.5437 -0.5628 -0.8868
 1319SOL    HW1 3792   0.483   3.990   3.180 -0.3839  1.4233  1.6699
 1319SOL    HW2 3793   0.491   3.901   3.302  1.8200  0.4719  0.8901
 1320SOL     OW 3794   3.713   3.440   2.648 -0.3585 -0.0804 -0.5321
 1320SOL    HW1 3795   3.778   3.370   2.644  0.9589  0.9288  1.2140
 1320SOL    HW2 3796   3.726   3.490   2.567 -0.3958 -1.0808 -1.1632
 1321SOL     OW 3797   1.976   3.343   2.607  0.3844 -0.1397 -0.5557
 1321SOL    HW1 3798   1.960   3.301   2.691 -2.1264  1.1311 -0.3015
 1321SOL    HW2 3799   2.008   3.430   2.630 -0.6523  0.3406 -0.8538
 1322SOL     OW 3800   2.898   2.411   0.822  0.1541  0.1690 -0.1041
 1322SOL    HW1 3801   2.808   2.411   0.856  0.2476  0.6143  0.1577
 1322SOL    HW2 3802   2.888   2.408   0.727 -0.1368  0.1974 -0.0752
 1323SOL     OW 3803   1.379   3.584   3.236  0.2825  0.1096 -0.3038
 1323SOL    HW1 3804   1.404   3.677   3.243  0.2203  0.0124  2.5635
 1323SOL    HW2 3805   1.365   3.557   3.327  2.3810 -3.2756 -0.8130
 1324SOL     OW 3806   3.131   1.146   1.196  0.0228  0.0711 -0.7510
 1324SOL    HW1 3807   3.139   1.185   1.109 -0.6836  1.3870 -0.2495
 1324SOL    HW2 3808   3.146   1.052   1.181 -0.3867  0.2204 -2.3409
 1325SOL     OW 3809   0.631   1.738   2.729  0.1008 -0.4112 -0.0499
 1325SOL    HW1 3810   0.612   1.752   2.636 -1.0138  1.5409  0.4201
 1325SOL    HW2 3811   0.725   1.719   2.732 -0.0458 -1.6341 -1.6534
 1326SOL     OW 3812   3.042   2.221   2.057 -0.2046  0.0424 -0.2292
 1326SOL    HW1 3813   3.130   2.211   2.020  0.0418  0.7446  0.1504
 1326SOL    HW2 3814   2.984   2.189   1.988  0.2810  0.6867 -0.9696
 1327SOL     OW 3815   2.656   0.662   0.161  0.1008 -0.0640  0.5426
 1327SOL    HW1 3816   2.702   0.677   0.078 -0.9776  0.1259 -0.0330
 1327SOL    HW2 3817   2.576   0.616   0.137 -1.2405  1.7807  1.2045
 1328SOL     OW 3818   0.110   1.588   3.488 -0.1781 -0.0470 -0.5550
 1328SOL    HW1 3819   0.121   1.499   3.454  0.5015  0.1491 -0.8677
 1328SOL    HW2 3820   0.165   1.641   3.431 -0.4344  0.5489 -0.2469
 1329SOL     OW 3821   0.664   2.706   3.183  0.1490 -0.0186  0.8649
 1329SOL    HW1 3822   0.674   2.746   3.269  0.8027 -0.2174  0.8895
 1329SOL    HW2 3823   0.591   2.753   3.142  1.0875  1.4071  0.7662
 1330SOL     OW 3824   3.460   3.526   3.742  0.5978 -0.0602  0.8772
 1330SOL    HW1 3825   3.546   3.490   3.763  1.6018  0.4097 -1.9467
 1330SOL    HW2 3826   3.421   3.462   3.683 -0.8117 -0.0148  1.7108
 1331SOL     OW 3827   3.256   1.392   3.408  0.9095 -0.4711 -0.2919
 1331SOL    HW1 3828   3.335   1.407   3.356  1.2312 -1.4181 -0.0902
 1331SOL    HW2 3829   3.216   1.315   3.367 -1.1069  1.2609 -1.8005
 1332SOL     OW 3830   3.750   1.363   2.098  0.0376  0.8311 -0.1180
 1332SOL    HW1 3831   3.682   1.303   2.070  0.6595 -0.6020  1.3087
 1332SOL    HW2 3832   3.832   1.324   2.066  0.8595 -1.1843  3.7878
 1333SOL     OW 3833   2.456   1.013   0.275  0.0189  0.2808 -0.1871
 1333SOL    HW1 3834   2.455   1.004   0.370  1.5400  0.7542 -0.1002
 1333SOL    HW2 3835   2.364   1.025   0.250 -0.3825  0.2192  1.2198
 1334SOL     OW 3836   2.433   3.124   3.009  0.0806  0.4177  0.2368
 1334SOL    HW1 3837   2.399   3.142   2.921 -0.8519 -2.9813 -0.2607
 1334SOL    HW2 3838   2.362   3.147   3.068 -0.2049  0.4592 -0.1233
 1335SOL     OW 3839   1.044   1.840   1.771  0.0026 -0.0866 -0.6514
 1335SOL    HW1 3840   1.031   1.824   1.678  0.8725 -0.9175 -0.6461
 1335SOL    HW2 3841   1.138   1.826   1.785 -0.2976 -1.0652  0.5507
 1336SOL     OW 3842   3.404   2.427   0.860  0.2040 -0.3363  0.0424
 1336SOL    HW1 3843   3.414   2.332   0.862 -3.3269 -0.8258  1.3435
 1336SOL    HW2 3844   3.333   2.443   0.797 -0.5200  1.2131  1.1771
 1337SOL     OW 3845   2.377   1.346   3.894 -0.4581 -0.4450 -0.0857
 1337SOL    HW1 3846   2.403   1.306   3.976 -0.8350 -1.3382 -0.3891
 1337SOL    HW2 3847   2.305   1.405   3.917  1.3677  1.6026  0.6648
 1338SOL     OW 3848   3.211   2.668   3.606  0.3681 -0.3204  0.7588
 1338SOL    HW1 3849   3.219   2.611   3.682  1.9742 -0.9859  0.1616
 1338SOL    HW2 3850   3.299   2.668   3.567 -0.2461  0.4813 -0.7400
 1339SOL     OW 3851   2.396   0.294   2.867 -0.2853 -0.1964 -1.0701
 1339SOL    HW1 3852   2.306   0.283   2.900 -0.0898  1.6119  0.2253
 1339SOL    HW2 3853   2.387   0.359   2.797 -0.1635 -1.1795 -2.0247
 1340SOL     OW 3854   2.825   2.880   3.420 -0.3742 -0.1884 -0.2613
 1340SOL    HW1 3855   2.793   2.821   3.489  2.1694  1.5420  2.6863
 1340SOL    HW2 3856   2.916   2.853   3.405 -0.5664  0.1294 -2.2701
 1341SOL     OW 3857   2.671   3.383   0.626  0.1367 -0.4369 -0.3047
 1341SOL    HW1 3858   2.741   3.447   0.641 -0.8771  0.4268  0.9537
 1341SOL    HW2 3859   2.638   3.363   0.714 -1.6213 -0.3128 -0.9008
 1342SOL     OW 3860   1.343   2.852   0.340 -0.1426 -0.1063  0.3726
 1342SOL    HW1 3861   1.322   2.761   0.319  2.2673 -0.8516  0.8868
 1342SOL    HW2 3862   1.403   2.880   0.272  0.1644  0.6688  0.9402
 1343SOL     OW 3863   2.067   3.020   2.365 -0.3041  0.3781 -0.9749
 1343SOL    HW1 3864   2.082   2.925   2.369  0.0832  0.4695  0.7127
 1343SOL    HW2 3865   1.990   3.034   2.421  0.1835  1.1371 -0.4718
 1344SOL     OW 3866   0.185   3.467   3.660 -0.1257 -0.2717 -0.2518
 1344SOL    HW1 3867   0.123   3.513   3.602 -0.2734  1.4379  1.1608
 1344SOL    HW2 3868   0.141   3.385   3.681 -0.2394 -0.7582 -2.2015
 1345SOL     OW 3869   3.068   1.401   3.619  0.0481  0.5269  0.1189
 1345SOL    HW1 3870   2.984   1.421   3.577 -0.0995  0.4379  0.3734
 1345SOL    HW2 3871   3.122   1.366   3.548  0.2601  1.6626 -0.3033
 1346SOL     OW 3872   0.005   3.154   0.492 -0.7641  0.4843  0.0688
 1346SOL    HW1 3873  -0.057   3.096   0.448 -1.7461  0.9746  0.8031
 1346SOL    HW2 3874  -0.041   3.181   0.572  0.4309  0.8963  0.6172
 1347SOL     OW 3875   2.746   0.261   0.052 -0.6323  0.6806  0.7092
 1347SOL    HW1 3876   2.790   0.191   0.100  1.6855  1.1399 -0.5574
 1347SOL    HW2 3877   2.726   0.327   0.118 -0.4683 -0.0676  1.5200
 1348SOL     OW 3878   0.429   0.036   2.830  0.0959 -0.3616 -0.2982
 1348SOL    HW1 3879   0.368  -0.015   2.882 -1.5140  2.0318  0.2952
 1348SOL    HW2 3880   0.509   0.039   2.882 -0.7564  0.1163  1.0378
 1349SOL     OW 3881   0.417   2.090   0.490 -0.7213  0.1219 -0.3640
 1349SOL    HW1 3882   0.483   2.057   0.550  0.2956  0.2566 -1.3730
 1349SOL    HW2 3883   0.441   2.182   0.477 -2.1203  0.6471  0.5729
 1350SOL     OW 3884   1.287   1.096   1.721  0.1963 -0.3303 -0.3443
 1350SOL    HW1 3885   1.269   1.187   1.745  2.2252  0.3291 -1.0450
 1350SOL    HW2 3886   1.341   1.063   1.793  0.2662 -0.6588 -0.5483
 1351SOL     OW 3887   0.113   1.736   0.490  0.0135 -0.5266  0.4022
 1351SOL    HW1 3888   0.150   1.821   0.465 -0.6003  0.0188  1.3096
 1351SOL    HW2 3889   0.119   1.683   0.410  0.0142  0.4986 -0.2969
 1352SOL     OW 3890   3.231   3.033   0.318  0.1169  0.2437 -0.6034
 1352SOL    HW1 3891   3.203   2.949   0.283  2.0597 -0.4066 -0.7108
 1352SOL    HW2 3892   3.280   3.074   0.247  0.5776  0.7394 -0.0099
 1353SOL     OW 3893   2.707   0.141   0.512 -0.3835  0.8166  0.2419
 1353SOL    HW1 3894   2.648   0.173   0.580  1.4775  3.4649  0.7738
 1353SOL    HW2 3895   2.780   0.103   0.560 -1.1057 -1.5676 -0.4038
 1354SOL     OW 3896   1.993   0.234   1.464 -0.0413  0.3522  0.6248
 1354SOL    HW1 3897   1.916   0.286   1.442 -2.7089 -3.3255  0.5053
 1354SOL    HW2 3898   1.977   0.204   1.553  0.1871 -2.1052 -0.1059
 1355SOL     OW 3899   1.568   1.749   3.648  0.2341  0.1862  0.4428
 1355SOL    HW1 3900   1.576   1.654   3.657  0.3583  0.1719  0.2132
 1355SOL    HW2 3901   1.520   1.761   3.565 -0.7295  0.3069  1.0046
 1356SOL     OW 3902   4.031   3.365   1.906  0.0643 -0.4530 -0.3572
 1356SOL    HW1 3903   4.068   3.417   1.835  0.5021 -0.6927 -0.3132
 1356SOL    HW2 3904   3.992   3.289   1.862  0.5261 -0.7109 -0.3321
 1357SOL     OW 3905   1.266   2.897   0.952  0.5246  0.2257 -0.3891
 1357SOL    HW1 3906   1.174   2.924   0.950  1.3946  3.5370 -1.8543
 1357SOL    HW2 3907   1.285   2.870   0.863  1.0798 -0.0169 -0.2002
 1358SOL     OW 3908   1.565   4.003   0.218  0.1395 -0.1542 -0.1448
 1358SOL    HW1 3909   1.518   4.055   0.153  2.5845  2.8055  0.2791
 1358SOL    HW2 3910   1.595   3.926   0.170 -0.0327  0.8726 -1.9731
 1359SOL     OW 3911   3.954   2.422   2.445 -0.1291  0.0237  0.3864
 1359SOL    HW1 3912   4.032   2.462   2.485  1.2188 -1.8421 -0.2596
 1359SOL    HW2 3913   3.941   2.471   2.364  1.3008 -0.6092 -0.2450
 1360SOL     OW 3914   0.777   0.920   3.749  0.3492 -0.2443 -0.5809
 1360SOL    HW1 3915   0.833   0.860   3.700  2.2481  0.4394  0.6630
 1360SOL    HW2 3916   0.834   0.957   3.816 -1.5235  0.7612  0.5347
 1361SOL     OW 3917   1.835   3.759   3.144 -0.4048 -0.0370  1.1692
 1361SOL    HW1 3918   1.923   3.724   3.155 -0.1972  0.3710  0.8363
 1361SOL    HW2 3919   1.777   3.685   3.164  0.0195 -0.5796  0.4610
 1362SOL     OW 3920   3.607   3.432   0.494 -0.1992  0.1937 -0.1929
 1362SOL    HW1 3921   3.564   3.418   0.578 -0.2101  0.7875 -0.0963
 1362SOL    HW2 3922   3.579   3.358   0.439  2.8981 -2.5380  1.5159
 1363SOL     OW 3923   0.675   1.383   3.973  0.2726 -0.0124  0.3580
 1363SOL    HW1 3924   0.749   1.413   3.920  0.4038 -0.9318  0.0043
 1363SOL    HW2 3925   0.619   1.337   3.911  0.3935 -1.0521  0.9955
 1364SOL     OW 3926   2.662   1.632   3.046  0.4871  0.3030  0.1427
 1364SOL    HW1 3927   2.671   1.615   2.952  2.8685 -0.4600  0.4510
 1364SOL    HW2 3928   2.740   1.594   3.085 -0.5241  0.4638  2.4855
 1365SOL     OW 3929   0.720   3.235   1.737  0.0493  1.1865  0.4327
 1365SOL    HW1 3930   0.792   3.294   1.714  2.5795 -2.2383 -1.3894
 1365SOL    HW2 3931   0.654   3.249   1.668  1.2924  0.9248 -0.8558
 1366SOL     OW 3932   0.903   2.081   2.460 -0.5563 -0.3213 -0.7112
 1366SOL    HW1 3933   0.893   2.048   2.550 -0.6446 -0.9766 -0.9591
 1366SOL    HW2 3934   0.995   2.105   2.454 -0.8893  1.2719  0.0735
 1367SOL     OW 3935   2.449   2.388   1.771 -0.0897 -0.2098  0.6838
 1367SOL    HW1 3936   2.365   2.372   1.728 -0.2315  0.8170  0.5427
 1367SOL    HW2 3937   2.426   2.434   1.852  0.1371 -2.4838  2.1205
 1368SOL     OW 3938   2.547   2.963   2.043 -0.4684  0.2811 -0.0024
 1368SOL    HW1 3939   2.580   2.968   1.953 -1.2681 -1.9745 -0.4973
 1368SOL    HW2 3940   2.454   2.984   2.036 -0.5571 -0.0112  0.2893
 1369SOL     OW 3941   3.954   1.701   1.060 -0.3914  0.5225  0.2436
 1369SOL    HW1 3942   4.011   1.737   0.992 -0.1597  1.3867  0.8760
 1369SOL    HW2 3943   4.014   1.673   1.129 -0.6461 -0.0028  0.2577
 1370SOL     OW 3944   1.686   0.270   0.133  0.2708 -0.0179 -0.4221
 1370SOL    HW1 3945   1.687   0.344   0.193  1.7578  0.0446 -0.4932
 1370SOL    HW2 3946   1.612   0.287   0.075 -0.0961  0.8192  0.2647
 1371SOL     OW 3947   1.260   3.651   2.261 -0.4357 -0.1164 -0.2122
 1371SOL    HW1 3948   1.193   3.695   2.313 -0.4287 -0.2908 -0.0549
 1371SOL    HW2 3949   1.254   3.692   2.174  2.3921  3.3013  0.9673
 1372SOL     OW 3950   0.074   4.065   2.760 -0.4233  0.4061 -0.4029
 1372SOL    HW1 3951   0.125   4.121   2.700 -0.0632  0.4016 -0.1053
 1372SOL    HW2 3952  -0.015   4.099   2.755 -0.9871 -1.1628 -2.8669
 1373SOL     OW 3953   2.658   3.210   3.186 -0.5527  0.3334  0.0719
 1373SOL    HW1 3954   2.605   3.157   3.127 -2.2099 -0.2317  1.9767
 1373SOL    HW2 3955   2.644   3.300   3.156 -0.8413  0.0202 -0.7733
 1374SOL     OW 3956   3.220   4.052   2.324  0.5628 -0.6798 -0.5001
 1374SOL    HW1 3957   3.203   3.994   2.250  1.3078 -0.8661 -0.5351
 1374SOL    HW2 3958   3.139   4.049   2.376 -0.0551 -0.3575 -1.4236
 1375SOL     OW 3959   2.738   0.107   3.908 -0.4345  0.4922 -0.1559
 1375SOL    HW1 3960   2.810   0.051   3.937 -1.1753 -0.4197 -0.0497
 1375SOL    HW2 3961   2.737   0.179   3.971  0.0172  0.2017  0.1844
 1376SOL     OW 3962   4.072   1.837   2.241  0.6336  0.1512  1.0623
 1376SOL    HW1 3963   4.066   1.799   2.154 -0.4665 -0.8522  1.5437
 1376SOL    HW2 3964   4.154   1.886   2.241  0.1737  0.9548 -0.8309
 1377SOL     OW 3965   1.018   3.051   3.565  0.0378  0.1257  0.6029
 1377SOL    HW1 3966   1.041   3.130   3.517  0.8567 -0.8181 -0.6049
 1377SOL    HW2 3967   1.002   3.081   3.654 -0.2503  1.7290  0.0382
 1378SOL     OW 3968   1.721   3.657   3.529  0.4708  0.0852 -0.1356
 1378SOL    HW1 3969   1.722   3.733   3.471  1.2596  2.1304  2.3730
 1378SOL    HW2 3970   1.813   3.638   3.545  0.2765  0.2529  1.2528
 1379SOL     OW 3971   1.892   3.565   1.360 -0.0205 -0.1780 -0.1848
 1379SOL    HW1 3972   1.893   3.578   1.455 -1.4790  0.3656 -0.2305
 1379SOL    HW2 3973   1.934   3.643   1.325  2.3588 -1.2515  0.0479
 1380SOL     OW 3974   4.068   1.990   0.656  0.9491  0.3190 -0.5946
 1380SOL    HW1 3975   4.009   2.065   0.648  1.8016  1.0103 -0.5871
 1380SOL    HW2 3976   4.123   1.995   0.578  0.0899 -1.1155 -1.3038
 1381SOL     OW 3977   2.518   1.239   3.692 -0.0075 -0.0778 -0.1811
 1381SOL    HW1 3978   2.456   1.281   3.752 -0.1831 -0.4261 -0.1151
 1381SOL    HW2 3979   2.602   1.244   3.737  0.0145  0.3972 -0.2712
 1382SOL     OW 3980   2.104   3.311   0.643  0.0539  0.3014  0.9034
 1382SOL    HW1 3981   2.194   3.290   0.620  0.1148  1.2432  0.2024
 1382SOL    HW2 3982   2.097   3.290   0.736  0.9685  0.1295  0.9394
 1383SOL     OW 3983   0.497   2.968   1.208 -0.3608 -0.6443  0.0603
 1383SOL    HW1 3984   0.480   3.016   1.289  2.6475 -1.3968  1.2426
 1383SOL    HW2 3985   0.550   2.893   1.235  0.6311 -0.9941 -2.5851
 1384SOL     OW 3986   0.433   2.763   3.790  0.6303  0.2759  0.5913
 1384SOL    HW1 3987   0.493   2.698   3.826 -1.4592 -3.1386 -1.5278
 1384SOL    HW2 3988   0.352   2.752   3.841 -0.4001 -0.3070 -1.0985
 1385SOL     OW 3989   2.684   3.311   0.204  0.2192  0.1034 -0.2158
 1385SOL    HW1 3990   2.720   3.243   0.147 -1.4019 -1.3808  0.4033
 1385SOL    HW2 3991   2.592   3.285   0.216 -0.1273  1.7507  1.0437
 1386SOL     OW 3992   1.029   2.280   3.439  0.0420 -0.1463  0.5317
 1386SOL    HW1 3993   1.052   2.187   3.429  0.9791  0.1015  0.2880
 1386SOL    HW2 3994   1.101   2.327   3.398 -0.8063  0.6871 -0.0295
 1387SOL     OW 3995   0.718   2.653   3.547 -0.0238 -0.4562  0.5436
 1387SOL    HW1 3996   0.789   2.715   3.566  0.5589 -0.9747  0.0955
 1387SOL    HW2 3997   0.682   2.631   3.633  0.5622 -0.4231  0.8064
 1388SOL     OW 3998   2.069   3.128   1.665  0.2591  0.2163 -0.1888
 1388SOL    HW1 3999   1.997   3.189   1.678 -1.0210 -0.7056 -2.3804
 1388SOL    HW2 4000   2.096   3.103   1.754  0.7375  3.7174  0.8083
 1389SOL     OW 4001   2.565   0.705   0.432  0.2922 -0.2521  0.5787
 1389SOL    HW1 4002   2.586   0.720   0.339 -0.0859 -0.0709  0.5191
 1389SOL    HW2 4003   2.525   0.617   0.434 -1.3266  0.4286  0.2877
 1390SOL     OW 4004   3.245   2.444   3.029 -0.3987 -0.1857 -0.1163
 1390SOL    HW1 4005   3.227   2.401   2.945 -0.6538  1.1645 -0.7802
 1390SOL    HW2 4006   3.176   2.510   3.038  0.2092  0.3653  0.6684
 1391SOL     OW 4007   3.990   0.502   2.570 -0.3001  0.0229  0.5007
 1391SOL    HW1 4008   3.987   0.570   2.502  2.8950 -0.1489  0.0308
 1391SOL    HW2 4009   4.008   0.421   2.522  2.3252 -0.0585  1.4394
 1392SOL     OW 4010   1.631   2.409   3.425 -0.4571 -0.0585 -0.2862
 1392SOL    HW1 4011   1.560   2.434   3.366 -0.1138 -0.3255 -0.8192
 1392SOL    HW2 4012   1.630   2.476   3.494 -0.7334  0.3693 -0.7017
 1393SOL     OW 4013   1.202   1.015   1.439 -0.1848  0.0640 -0.5349
 1393SOL    HW1 4014   1.249   1.041   1.518 -2.5049 -0.8840  1.2515
 1393SOL    HW2 4015   1.124   1.071   1.438 -0.5571 -0.4468 -1.7648
 1394SOL     OW 4016   2.879   3.212   0.560 -0.4051  0.3814  0.3792
 1394SOL    HW1 4017   2.899   3.184   0.650 -1.0687 -2.1665 -0.1850
 1394SOL    HW2 4018   2.797   3.260   0.568 -0.1101  0.7658  1.2214
 1395SOL     OW 4019   2.401   1.654   1.324 -0.0417 -0.3104  0.8650
 1395SOL    HW1 4020   2.341   1.619   1.390  0.0549 -0.9601  0.6216
 1395SOL    HW2 4021   2.476   1.594   1.326 -1.0843 -1.8268 -1.5178
 1396SOL     OW 4022   1.453   2.599   0.723  0.2955 -0.5553 -0.0344
 1396SOL    HW1 4023   1.365   2.636   0.711  1.2711  1.3588 -1.9887
 1396SOL    HW2 4024   1.453   2.520   0.669  0.6037  1.0252 -2.4808
 1397SOL     OW 4025   1.595   3.050   3.528 -0.7147 -0.1937 -0.0720
 1397SOL    HW1 4026   1.651   3.018   3.598  1.1730  0.5441 -1.1880
 1397SOL    HW2 4027   1.593   2.979   3.464  0.4387  0.4277 -0.8368
 1398SOL     OW 4028   2.373   1.428   1.737  0.0645  0.2633  0.1791
 1398SOL    HW1 4029   2.412   1.408   1.822 -2.3024  1.1374  1.5492
 1398SOL    HW2 4030   2.300   1.486   1.756  0.9731  2.6317 -2.7333
 1399SOL     OW 4031   3.829   3.120   2.081 -0.1028 -0.1191 -0.5632
 1399SOL    HW1 4032   3.833   3.031   2.116  0.1699 -0.6300 -1.8378
 1399SOL    HW2 4033   3.921   3.144   2.068 -0.1433  0.6354  0.4358
 1400SOL     OW 4034   0.124   3.598   3.211  0.1364 -0.1094  0.4795
 1400SOL    HW1 4035   0.115   3.515   3.164  0.3336  0.4463 -0.5688
 1400SOL    HW2 4036   0.215   3.624   3.197 -0.2218  0.8501 -0.1982
 1401SOL     OW 4037   0.503   3.461   0.451 -0.5838 -0.0903 -0.2043
 1401SOL    HW1 4038   0.591   3.436   0.479 -0.3951 -0.3294 -0.9912
 1401SOL    HW2 4039   0.455   3.473   0.533  0.2281  0.2280  0.2375
 1402SOL     OW 4040   1.664   1.141   0.813 -0.3409  0.0650 -0.3582
 1402SOL    HW1 4041   1.610   1.145   0.893  3.6283 -2.6940  2.8844
 1402SOL    HW2 4042   1.694   1.231   0.801 -0.1267  0.4132  2.0883
 1403SOL     OW 4043   3.976   3.139   1.032  0.0242 -0.0140 -0.0634
 1403SOL    HW1 4044   3.974   3.119   0.939 -0.4295 -1.3228  0.2077
 1403SOL    HW2 4045   4.068   3.128   1.057  0.4666  1.9848 -0.6662
 1404SOL     OW 4046   1.746   0.387   1.431 -0.2191 -0.4899 -0.1743
 1404SOL    HW1 4047   1.743   0.456   1.364  0.5638  0.8660  1.1172
 1404SOL    HW2 4048   1.719   0.431   1.511  1.0714 -1.4698  0.8424
 1405SOL     OW 4049   2.393   1.818   3.054 -0.1507  0.1073 -0.2438
 1405SOL    HW1 4050   2.387   1.811   2.959  0.0292  0.1803 -0.2595
 1405SOL    HW2 4051   2.353   1.736   3.086 -1.8510  0.8640 -0.3312
 1406SOL     OW 4052   1.203   1.791   1.029  0.3471  0.2229  0.3501
 1406SOL    HW1 4053   1.282   1.842   1.052  0.3279  0.2798  0.2909
 1406SOL    HW2 4054   1.153   1.849   0.971  0.0173  0.3823  0.7911
 1407SOL     OW 4055   0.947   3.887   4.031  0.0427 -0.1684 -0.0727
 1407SOL    HW1 4056   0.853   3.882   4.013  0.0341  0.1269 -0.1118
 1407SOL    HW2 4057   0.986   3.914   3.948  0.3753 -2.1715 -0.6058
 1408SOL     OW 4058   3.078   1.874   1.352  0.3750  0.1802  0.2434
 1408SOL    HW1 4059   3.153   1.868   1.411  0.7899 -0.3690 -0.3261
 1408SOL    HW2 4060   3.002   1.862   1.408  0.7971 -1.0799  0.5661
 1409SOL     OW 4061   2.185   3.554   0.902  0.2918  0.5277 -0.8702
 1409SOL    HW1 4062   2.233   3.488   0.852  1.4392  1.1135 -0.5935
 1409SOL    HW2 4063   2.099   3.558   0.860 -0.7410 -2.8614  0.5951
 1410SOL     OW 4064   2.709   2.399   2.580 -0.0042  0.4014  0.3757
 1410SOL    HW1 4065   2.627   2.353   2.596 -0.2932  0.2101 -1.4324
 1410SOL    HW2 4066   2.684   2.480   2.536  0.7300  0.6671  0.4231
 1411SOL     OW 4067   1.652   0.264   0.802  0.3736  0.7879 -0.4020
 1411SOL    HW1 4068   1.707   0.194   0.768 -0.2197 -0.6186  1.3836
 1411SOL    HW2 4069   1.578   0.219   0.843 -0.1294  2.4610  0.6254
 1412SOL     OW 4070   1.510   1.214   1.042  0.0699 -0.1235  0.0640
 1412SOL    HW1 4071   1.485   1.154   1.112  0.1759 -1.7281 -1.2042
 1412SOL    HW2 4072   1.573   1.273   1.083 -0.2105 -0.7289  1.4272
 1413SOL     OW 4073   2.163   0.508   3.876  0.0567  0.0632 -0.3446
 1413SOL    HW1 4074   2.161   0.491   3.971 -0.2368 -0.9164 -0.5169
 1413SOL    HW2 4075   2.074   0.490   3.846 -0.2636  1.8729 -0.5801
 1414SOL     OW 4076   0.414   3.127   1.409  0.6641 -0.1235  0.1467
 1414SOL    HW1 4077   0.400   3.158   1.498 -0.6393  1.2127 -0.4902
 1414SOL    HW2 4078   0.399   3.203   1.354  0.7765 -1.0879 -1.2732
 1415SOL     OW 4079   3.922   3.780   1.111  0.5315 -0.2623  0.6848
 1415SOL    HW1 4080   3.956   3.829   1.036 -0.2968  1.8169  1.5745
 1415SOL    HW2 4081   3.840   3.824   1.133 -1.4139 -3.3725  0.3332
 1416SOL     OW 4082   0.960   4.043   0.378 -1.0117 -0.0713  0.2653
 1416SOL    HW1 4083   0.987   4.117   0.433 -0.8857  2.1880 -2.6099
 1416SOL    HW2 4084   1.021   3.973   0.400  1.1680  1.8447  0.6728
 1417SOL     OW 4085   0.702   1.570   1.737  0.5055  0.0343  0.3926
 1417SOL    HW1 4086   0.676   1.635   1.671 -1.2052 -0.5558  0.4359
 1417SOL    HW2 4087   0.765   1.514   1.693  0.4793  0.5125 -0.2655
 1418SOL     OW 4088   2.093   0.652   3.267  0.2126 -0.2707 -0.1357
 1418SOL    HW1 4089   2.116   0.701   3.346  0.2729 -1.0885  0.3673
 1418SOL    HW2 4090   2.177   0.621   3.233  0.1532 -0.2337 -0.3154
 1419SOL     OW 4091   1.130   0.491   2.876  0.0559 -0.2797  0.0985
 1419SOL    HW1 4092   1.061   0.451   2.928 -0.6658  0.3683 -0.3340
 1419SOL    HW2 4093   1.185   0.537   2.939 -1.5618  1.6205  0.2125
 1420SOL     OW 4094   0.918   2.210   0.809 -0.3245  0.2735 -0.3122
 1420SOL    HW1 4095   0.949   2.286   0.761  1.9431 -1.2494 -1.4108
 1420SOL    HW2 4096   0.822   2.217   0.807 -0.2394  1.5938 -2.8653
 1421SOL     OW 4097   0.517   1.485   0.372 -0.4099  0.3898 -0.2412
 1421SOL    HW1 4098   0.586   1.511   0.310  0.5658  0.2510  0.7544
 1421SOL    HW2 4099   0.533   1.540   0.449  0.5242 -1.7837  1.1973
 1422SOL     OW 4100   0.920   0.577   1.827  0.2771 -0.9502 -0.3199
 1422SOL    HW1 4101   1.006   0.610   1.799  0.1766 -0.4619 -0.0444
 1422SOL    HW2 4102   0.936   0.538   1.913 -0.1127  0.7009  0.5350
 1423SOL     OW 4103   0.071   2.310   3.216 -0.3861  0.4223  0.4746
 1423SOL    HW1 4104   0.156   2.290   3.176 -0.8094  1.7066 -1.1784
 1423SOL    HW2 4105   0.009   2.257   3.167 -0.5466 -0.5517  1.7165
 1424SOL     OW 4106   3.077   3.913   2.877 -0.2267  0.4013  0.5373
 1424SOL    HW1 4107   3.153   3.969   2.860 -0.5878  0.4880 -0.9565
 1424SOL    HW2 4108   3.011   3.944   2.816 -0.0588 -2.3563 -1.1944
 1425SOL     OW 4109   0.558   2.791   2.736  0.4377 -0.4156 -0.2218
 1425SOL    HW1 4110   0.614   2.766   2.663 -1.8833 -2.8613 -1.3454
 1425SOL    HW2 4111   0.500   2.716   2.749 -1.5169  1.2910  1.9032
 1426SOL     OW 4112   1.037   3.693   3.673 -0.3638  0.0929 -0.2328
 1426SOL    HW1 4113   1.037   3.611   3.724  1.4778 -1.7465 -2.9543
 1426SOL    HW2 4114   1.128   3.706   3.648 -1.0327  1.5179 -2.1048
 1427SOL     OW 4115   3.816   0.883   1.532  0.3740  1.1803 -0.4496
 1427SOL    HW1 4116   3.898   0.834   1.538 -2.0605 -3.3913  0.5643
 1427SOL    HW2 4117   3.788   0.871   1.442 -0.1802  0.7491 -0.2265
 1428SOL     OW 4118   1.751   2.536   3.997  0.5601  0.1147  0.6877
 1428SOL    HW1 4119   1.671   2.572   4.036  0.0453  0.9586 -1.0601
 1428SOL    HW2 4120   1.809   2.521   4.072  0.0525  2.7197  1.6813
 1429SOL     OW 4121   0.986   2.899   3.292  0.0698  0.1385  0.3205
 1429SOL    HW1 4122   1.049   2.884   3.363  0.4478  1.4452  0.2718
 1429SOL    HW2 4123   0.900   2.896   3.335  0.2460  0.0253  0.6701
 1430SOL     OW 4124   2.668   0.595   1.467  0.2008 -0.1557 -0.4319
 1430SOL    HW1 4125   2.724   0.541   1.411 -0.6943 -1.1917 -0.3594
 1430SOL    HW2 4126   2.720   0.609   1.546  0.1656 -1.6143 -0.1169
 1431SOL     OW 4127   2.351   0.492   2.032  0.5367  0.0624 -0.4749
 1431SOL    HW1 4128   2.273   0.446   2.002  0.6344 -0.6216  0.2712
 1431SOL    HW2 4129   2.372   0.552   1.961 -0.4529 -0.0035 -0.8409
 1432SOL     OW 4130   2.770   2.687   3.621  0.3277  0.2124 -0.1098
 1432SOL    HW1 4131   2.795   2.617   3.561 -2.7532 -1.0927 -0.0267
 1432SOL    HW2 4132   2.832   2.681   3.693  1.3664 -1.0867 -1.0753
 1433SOL     OW 4133   0.926   1.806   0.649 -0.6784  0.6894 -0.0180
 1433SOL    HW1 4134   0.948   1.713   0.647 -0.4163  0.7351 -2.2924
 1433SOL    HW2 4135   0.902   1.824   0.740  0.8029 -1.2144  0.8070
 1434SOL     OW 4136   0.899   3.168   3.767  0.4129  0.3506 -0.3371
 1434SOL    HW1 4137   0.854   3.246   3.736  0.6633 -0.5079 -3.1082
 1434SOL    HW2 4138   0.836   3.124   3.825 -1.3842  0.4524 -2.1305
 1435SOL     OW 4139   2.435   3.442   0.439  0.4175 -0.2562 -0.0022
 1435SOL    HW1 4140   2.487   3.399   0.507  1.3231 -0.5107 -0.8371
 1435SOL    HW2 4141   2.421   3.530   0.472  1.4620 -0.1536  0.2120
 1436SOL     OW 4142   3.644   1.016   2.067  0.4133 -0.2782  0.0724
 1436SOL    HW1 4143   3.688   1.049   2.146  0.5122  1.0284 -0.5065
 1436SOL    HW2 4144   3.666   1.079   1.999 -1.9260  0.1712 -0.3726
 1437SOL     OW 4145   3.605   3.043   2.425 -0.3388  0.0599 -0.0714
 1437SOL    HW1 4146   3.648   3.027   2.509 -0.8335 -1.2354 -0.0512
 1437SOL    HW2 4147   3.532   3.101   2.446 -0.4852 -0.2944  0.4043
 1438SOL     OW 4148   1.408   0.161   1.399 -0.4566 -0.5464 -0.3271
 1438SOL    HW1 4149   1.400   0.227   1.468  0.6181 -0.9720  0.2184
 1438SOL    HW2 4150   1.399   0.210   1.318  2.1366  0.6205 -0.0079
 1439SOL     OW 4151   1.537   2.259   2.519  0.9609  0.3260 -0.7249
 1439SOL    HW1 4152   1.583   2.271   2.602  1.0409  1.0324 -0.8692
 1439SOL    HW2 4153   1.544   2.344   2.475  2.0510 -0.3857 -2.0279
 1440SOL     OW 4154   2.049   0.968   3.034  0.0228 -0.4899  0.3932
 1440SOL    HW1 4155   2.021   1.001   3.119 -2.2054  0.0743 -0.4869
 1440SOL    HW2 4156   2.102   1.039   2.997 -0.2526 -0.1122  0.7144
 1441SOL     OW 4157   0.036   3.968   3.894  0.0447 -0.1534 -0.3098
 1441SOL    HW1 4158  -0.053   3.934   3.895 -1.0077  2.1653 -3.3399
 1441SOL    HW2 4159   0.092   3.891   3.886 -1.8715 -1.5005 -1.3147
 1442SOL     OW 4160   2.687   3.790   3.957 -0.1502  0.5198 -0.1635
 1442SOL    HW1 4161   2.677   3.871   4.007 -2.1033 -1.9593  4.0209
 1442SOL    HW2 4162   2.742   3.734   4.012 -0.3966 -1.6461 -1.9660
 1443SOL     OW 4163   2.713   1.929   3.092 -0.4612 -0.0655  0.0255
 1443SOL    HW1 4164   2.637   1.872   3.082 -1.6338  1.0128  2.0373
 1443SOL    HW2 4165   2.693   2.006   3.039 -0.0379 -0.4431 -0.6896
 1444SOL     OW 4166   0.429   0.325   2.145  0.0187  0.3217 -0.2400
 1444SOL    HW1 4167   0.360   0.328   2.079 -0.1080  1.0446 -0.0832
 1444SOL    HW2 4168   0.421   0.238   2.184 -0.4970  0.2275 -0.5474
 1445SOL     OW 4169   0.409   0.359   1.265  0.5459 -0.4917  0.6744
 1445SOL    HW1 4170   0.470   0.371   1.339  0.8464  0.6371  0.2592
 1445SOL    HW2 4171   0.326   0.394   1.297 -0.6585 -4.2360  2.1402
 1446SOL     OW 4172   2.233   0.053   3.915 -0.0407  0.5221 -0.2481
 1446SOL    HW1 4173   2.208   0.001   3.992 -0.9733  0.9930 -0.2184
 1446SOL    HW2 4174   2.181   0.017   3.844  0.4660  0.4460 -0.5677
 1447SOL     OW 4175   1.990   3.264   3.474  0.2045 -0.3651 -0.0723
 1447SOL    HW1 4176   1.966   3.334   3.414 -0.5684  0.1228  0.7703
 1447SOL    HW2 4177   2.053   3.304   3.534  0.5374 -0.6863 -0.2022
 1448SOL     OW 4178   0.585   2.919   3.628  0.2280  0.1099 -0.0681
 1448SOL    HW1 4179   0.516   2.879   3.681 -0.0531  0.9895  0.2451
 1448SOL    HW2 4180   0.644   2.960   3.692 -0.2152  1.3407 -0.4224
 1449SOL     OW 4181   0.550   3.770   0.235 -0.5292 -0.1175 -0.3953
 1449SOL    HW1 4182   0.643   3.748   0.228 -0.4318  0.3928 -0.7734
 1449SOL    HW2 4183   0.506   3.686   0.244  0.0708 -0.3139  0.9723
 1450SOL     OW 4184   2.981   1.277   3.847  0.3517  0.8039  0.2869
 1450SOL    HW1 4185   3.051   1.243   3.904  0.9289  2.4532  0.5986
 1450SOL    HW2 4186   3.024   1.292   3.763 -0.0092  0.3865  0.0216
 1451SOL     OW 4187   0.921   2.209   1.886 -0.6731 -0.6405 -0.6016
 1451SOL    HW1 4188   0.968   2.152   1.947  1.1841  1.1203 -0.2968
 1451SOL    HW2 4189   0.868   2.266   1.941  2.6960  2.4968 -0.2111
 1452SOL     OW 4190   1.757   4.015   0.883  0.2712  0.0147 -0.1409
 1452SOL    HW1 4191   1.676   3.964   0.885 -1.5182  2.6631  0.0807
 1452SOL    HW2 4192   1.810   3.974   0.814 -1.6773 -1.2159 -0.9875
 1453SOL     OW 4193   1.962   2.227   3.692 -0.1491  0.3137  0.2473
 1453SOL    HW1 4194   2.016   2.241   3.615  0.2129  0.1554  0.4687
 1453SOL    HW2 4195   1.912   2.308   3.702  0.4172  0.6603  0.3305
 1454SOL     OW 4196   3.866   1.228   1.026 -0.7684  0.2196 -0.1411
 1454SOL    HW1 4197   3.788   1.267   1.066 -2.4170 -2.0830 -0.8724
 1454SOL    HW2 4198   3.902   1.171   1.093 -1.7305 -1.2573 -0.8072
 1455SOL     OW 4199   1.853   3.543   2.923 -0.5096  0.0104  0.1699
 1455SOL    HW1 4200   1.858   3.630   2.883 -0.2883  0.9730  2.1985
 1455SOL    HW2 4201   1.771   3.543   2.971 -0.5583 -0.9605  0.1010
 1456SOL     OW 4202   0.568   2.470   0.937 -0.1166  0.5277  0.0023
 1456SOL    HW1 4203   0.522   2.521   0.871  1.5479  2.0481 -0.0848
 1456SOL    HW2 4204   0.521   2.487   1.018 -1.3555 -0.2408 -0.5374
 1457SOL     OW 4205   0.208   0.513   0.617 -0.4652  0.4464  0.0182
 1457SOL    HW1 4206   0.139   0.540   0.678 -1.0111  0.8056 -0.7556
 1457SOL    HW2 4207   0.162   0.480   0.540  0.2218 -0.2529 -0.1080
 1458SOL     OW 4208   0.735   2.316   2.134 -0.0076  0.1981 -0.3004
 1458SOL    HW1 4209   0.749   2.409   2.152 -0.9762  0.1292  0.9059
 1458SOL    HW2 4210   0.642   2.302   2.148 -0.1248 -0.7111 -1.7262
 1459SOL     OW 4211   3.488   0.201   0.063  0.2101 -0.3491  0.7131
 1459SOL    HW1 4212   3.569   0.229   0.104  0.9215  0.1019 -0.9083
 1459SOL    HW2 4213   3.515   0.133   0.001 -0.3813  0.7891 -0.8467
 1460SOL     OW 4214   3.645   0.501   0.032  0.4859 -0.1410  0.0652
 1460SOL    HW1 4215   3.697   0.423   0.046 -0.8857 -0.8653  1.5125
 1460SOL    HW2 4216   3.617   0.527   0.120 -0.4116  1.0274 -0.5291
 1461SOL     OW 4217   1.270   2.259   2.433 -0.2951 -0.8020 -0.2129
 1461SOL    HW1 4218   1.364   2.251   2.445 -0.5204 -1.9612  1.0656
 1461SOL    HW2 4219   1.241   2.170   2.411 -1.1132 -0.4924 -0.4175
 1462SOL     OW 4220   3.826   2.478   1.828  0.2169 -0.1915  0.2766
 1462SOL    HW1 4221   3.875   2.476   1.746 -3.6504 -1.6500 -2.2753
 1462SOL    HW2 4222   3.815   2.572   1.847  0.9041  0.1790 -1.0593
 1463SOL     OW 4223   3.387   1.056   2.313 -0.1585  0.2059  0.5919
 1463SOL    HW1 4224   3.391   1.084   2.404  0.2491 -0.1078  0.6725
 1463SOL    HW2 4225   3.357   0.965   2.317  0.1213  0.1077  0.4272
 1464SOL     OW 4226   1.529   2.319   3.822  0.4114 -0.4366  0.0361
 1464SOL    HW1 4227   1.513   2.253   3.890 -0.7637  0.1035  0.3169
 1464SOL    HW2 4228   1.474   2.393   3.848  0.7403  0.1724 -0.9604
 1465SOL     OW 4229   0.156   0.389   3.865  0.4117  0.1246  0.3753
 1465SOL    HW1 4230   0.229   0.446   3.842  1.0409 -0.9920 -0.4522
 1465SOL    HW2 4231   0.124   0.356   3.782 -2.1364  1.8351  0.5599
 1466SOL     OW 4232   0.724   0.751   2.359 -0.0263  0.2095  0.2756
 1466SOL    HW1 4233   0.661   0.800   2.412 -0.0333 -0.2302  0.6777
 1466SOL    HW2 4234   0.671   0.686   2.313 -0.0833  0.8575 -0.6102
 1467SOL     OW 4235   3.547   1.202   0.134  0.3965  0.8285  0.5235
 1467SOL    HW1 4236   3.474   1.173   0.080 -0.5649  2.9831  0.5632
 1467SOL    HW2 4237   3.516   1.190   0.224  0.3978  1.0130  0.5487
 1468SOL     OW 4238   0.268   2.304   1.383 -0.1532  0.5325 -0.4650
 1468SOL    HW1 4239   0.233   2.230   1.333 -0.1763 -0.0671  0.3984
 1468SOL    HW2 4240   0.274   2.270   1.473  1.3354  1.0669 -0.3442
 1469SOL     OW 4241   0.094   2.402   0.958  0.4244 -0.3050  0.2333
 1469SOL    HW1 4242   0.006   2.376   0.984  0.8614 -1.4228  0.6833
 1469SOL    HW2 4243   0.089   2.413   0.863 -0.2792 -0.0285  0.3026
 1470SOL     OW 4244   0.930   1.333   1.259  0.4115  0.0322 -0.3283
 1470SOL    HW1 4245   1.012   1.329   1.209  0.3493 -0.1205 -0.4202
 1470SOL    HW2 4246   0.862   1.338   1.192  0.1593 -2.6519 -0.3876
 1471SOL     OW 4247   1.582   1.746   0.274 -0.4204  0.0604 -0.0511
 1471SOL    HW1 4248   1.619   1.659   0.291  0.3339  0.7514  2.1947
 1471SOL    HW2 4249   1.503   1.749   0.328 -0.3403  0.8223  0.0297
 1472SOL     OW 4250   3.945   0.970   3.945 -0.3805 -0.1435 -0.1713
 1472SOL    HW1 4251   3.899   0.910   4.004 -0.5986  0.2525  0.0685
 1472SOL    HW2 4252   3.909   0.951   3.859  0.0681 -0.8502 -0.2111
 1473SOL     OW 4253   2.040   2.046   2.253  0.3802  0.1953  0.0724
 1473SOL    HW1 4254   2.037   2.141   2.247 -0.5056  0.2838  1.5235
 1473SOL    HW2 4255   2.055   2.028   2.346  1.2784 -1.0860 -0.2882
 1474SOL     OW 4256   1.536   2.382   0.350  0.6802 -0.1039  0.2092
 1474SOL    HW1 4257   1.517   2.395   0.257  1.4521  0.6720  0.1448
 1474SOL    HW2 4258   1.569   2.293   0.355  1.1145  0.0200 -0.3451
 1475SOL     OW 4259   0.646   2.099   3.289 -0.3767 -0.6477 -0.0916
 1475SOL    HW1 4260   0.626   2.143   3.372  0.6085  0.4251 -0.3986
 1475SOL    HW2 4261   0.603   2.153   3.223  2.3758  1.0620 -0.6589
 1476SOL     OW 4262   2.395   1.866   2.471  0.0099  0.0844 -0.6931
 1476SOL    HW1 4263   2.460   1.810   2.429  3.1739  1.7927  1.4593
 1476SOL    HW2 4264   2.411   1.953   2.433  1.7669  1.3086  2.3985
 1477SOL     OW 4265   0.574   0.336   2.712 -0.1915  0.2229 -0.0225
 1477SOL    HW1 4266   0.492   0.298   2.683 -0.2144  1.1400 -1.2368
 1477SOL    HW2 4267   0.578   0.317   2.806 -1.4523 -0.4172 -0.0846
 1478SOL     OW 4268   3.524   0.634   2.853  0.2011  0.3928 -0.0295
 1478SOL    HW1 4269   3.532   0.729   2.845  0.8812  0.2646 -1.1120
 1478SOL    HW2 4270   3.609   0.601   2.826  0.0233 -0.5210  0.5049
 1479SOL     OW 4271   1.151   1.683   3.249 -0.2194 -0.7337 -0.0165
 1479SOL    HW1 4272   1.174   1.694   3.341 -0.1270 -0.4396 -0.0729
 1479SOL    HW2 4273   1.214   1.738   3.202 -1.5439  0.7452 -0.1297
 1480SOL     OW 4274   3.569   1.858   2.481  0.5183 -1.0990  0.0975
 1480SOL    HW1 4275   3.482   1.869   2.442  1.4365  1.0608 -1.6083
 1480SOL    HW2 4276   3.613   1.796   2.423  0.5544 -1.1115  0.1387
 1481SOL     OW 4277   2.264   3.854   2.125  0.0738 -0.1053  0.4402
 1481SOL    HW1 4278   2.238   3.765   2.101 -0.0262  0.0467 -0.0359
 1481SOL    HW2 4279   2.328   3.879   2.058  1.1806 -0.3393  1.3947
 1482SOL     OW 4280   0.204   2.635   3.433 -0.4562  0.2846  0.1649
 1482SOL    HW1 4281   0.218   2.692   3.509  0.8824 -3.1163  2.7600
 1482SOL    HW2 4282   0.290   2.632   3.390 -0.2255 -0.5445  0.6692
 1483SOL     OW 4283   3.054   2.553   0.138 -0.3224  0.1398 -0.2783
 1483SOL    HW1 4284   3.121   2.495   0.103  0.8284  1.2921 -0.0518
 1483SOL    HW2 4285   2.986   2.494   0.172  0.6150 -1.0476 -0.4141
 1484SOL     OW 4286   2.099   1.868   1.006  0.2787 -0.3487  0.4164
 1484SOL    HW1 4287   2.139   1.884   1.092 -0.0923 -1.5009  0.8264
 1484SOL    HW2 4288   2.097   1.772   0.998  0.7202 -0.2635 -1.0780
 1485SOL     OW 4289   3.647   3.451   0.070  0.0544 -0.0146  1.0401
 1485SOL    HW1 4290   3.739   3.473   0.084  0.3148 -1.1476  1.1614
 1485SOL    HW2 4291   3.636   3.450  -0.025  0.7054 -1.9386  0.9878
 1486SOL     OW 4292   1.269   3.297   2.682  0.2739 -0.1504  0.6192
 1486SOL    HW1 4293   1.228   3.287   2.768  1.1258  0.5340  1.1245
 1486SOL    HW2 4294   1.205   3.345   2.630 -1.1318 -2.3705  0.1825
 1487SOL     OW 4295   2.833   3.579   2.187 -0.0556  0.3820  0.2099
 1487SOL    HW1 4296   2.911   3.527   2.168 -1.0546 -0.9539 -0.3929
 1487SOL    HW2 4297   2.819   3.631   2.108  0.4435  0.9359  0.4780
 1488SOL     OW 4298   1.411   0.379   1.587  0.0761  0.1299  0.6826
 1488SOL    HW1 4299   1.368   0.454   1.546  1.9275  0.5038 -0.6901
 1488SOL    HW2 4300   1.496   0.412   1.616  0.0954 -0.9435  1.9708
 1489SOL     OW 4301   0.183   2.941   0.605 -0.1060  0.3730 -0.0013
 1489SOL    HW1 4302   0.112   2.995   0.569  0.2672 -0.1503 -1.6489
 1489SOL    HW2 4303   0.263   2.990   0.585  0.1171  0.0460  0.0779
 1490SOL     OW 4304   1.514   1.768   2.045 -0.1929 -0.0093 -0.7470
 1490SOL    HW1 4305   1.587   1.813   2.089  0.2675  0.0292 -1.5416
 1490SOL    HW2 4306   1.538   1.676   2.048  0.4559  0.1018 -2.0188
 1491SOL     OW 4307   2.175   2.783   1.011 -0.2812  0.0001 -0.0810
 1491SOL    HW1 4308   2.224   2.826   1.081  0.2456 -0.7810  0.0423
 1491SOL    HW2 4309   2.091   2.830   1.009  0.0584  0.6551  0.4223
 1492SOL     OW 4310   0.174   2.625   2.083 -0.4110  0.4922  0.3987
 1492SOL    HW1 4311   0.083   2.653   2.077 -0.2224  0.9560 -0.5497
 1492SOL    HW2 4312   0.176   2.540   2.038 -0.3950  0.4404  0.4978
 1493SOL     OW 4313   2.980   2.144   1.333 -0.2940  1.0276 -0.0172
 1493SOL    HW1 4314   2.998   2.213   1.269  4.7894  1.0847  1.0655
 1493SOL    HW2 4315   2.964   2.066   1.279  0.8738  1.6730 -1.3681
 1494SOL     OW 4316   1.577   2.844   1.871  0.4190 -0.2522  0.7299
 1494SOL    HW1 4317   1.483   2.835   1.886 -0.5348  4.1591 -1.1049
 1494SOL    HW2 4318   1.614   2.863   1.957 -0.7488  0.2597  1.1308
 1495SOL     OW 4319   1.887   1.696   4.026 -0.3017  0.7275 -0.3638
 1495SOL    HW1 4320   1.847   1.626   3.973 -0.0904  1.7461 -1.9192
 1495SOL    HW2 4321   1.812   1.741   4.066 -0.4349 -0.4364  0.7536
 1496SOL     OW 4322   2.423   3.010   3.382 -0.2320 -0.4413  0.0647
 1496SOL    HW1 4323   2.374   3.067   3.322 -1.6279 -1.7806 -0.1216
 1496SOL    HW2 4324   2.511   3.049   3.385  0.8926 -1.8205 -5.1058
 1497SOL     OW 4325   0.357   1.672   3.702  0.2272 -0.1217  0.5351
 1497SOL    HW1 4326   0.294   1.722   3.650  1.2620  2.8208  1.8940
 1497SOL    HW2 4327   0.316   1.664   3.789 -0.0638 -2.0508  0.2670
 1498SOL     OW 4328   3.481   2.211   2.219 -0.1638 -0.5456 -0.2941
 1498SOL    HW1 4329   3.567   2.171   2.204  0.8839  0.9715  1.2430
 1498SOL    HW2 4330   3.432   2.145   2.269  0.9371 -0.5886  0.7876
 1499SOL     OW 4331   3.833   1.088   2.262  0.0656 -0.1835  0.0357
 1499SOL    HW1 4332   3.914   1.116   2.303  0.6667 -1.5440 -0.1472
 1499SOL    HW2 4333   3.781   1.050   2.333 -0.7485  1.3107  0.2872
 1500SOL     OW 4334   0.235   0.356   2.417  0.2481  0.4188 -0.2058
 1500SOL    HW1 4335   0.297   0.288   2.389 -2.0304 -0.8167 -2.8084
 1500SOL    HW2 4336   0.149   0.317   2.403 -1.2989  1.5632  4.4643
 1501SOL     OW 4337   1.618   3.628   3.799  0.0535 -0.2602 -0.2647
 1501SOL    HW1 4338   1.553   3.692   3.828 -0.3914 -0.8904  0.1814
 1501SOL    HW2 4339   1.661   3.669   3.725 -1.3722 -0.1220 -1.0535
 1502SOL     OW 4340   0.938   2.803   3.665  0.0439 -0.3012 -0.4380
 1502SOL    HW1 4341   0.881   2.820   3.740  2.6918  0.1608  1.6265
 1502SOL    HW2 4342   0.960   2.890   3.632 -1.1330 -0.5010 -1.8748
 1503SOL     OW 4343   0.307   3.156   3.095 -0.0659  0.0014  0.1543
 1503SOL    HW1 4344   0.300   3.083   3.157  0.1883 -1.8162 -1.8370
 1503SOL    HW2 4345   0.370   3.126   3.029 -0.3967  1.7874 -1.0477
 1504SOL     OW 4346   0.895   1.721   1.244  0.0978  0.0489 -0.0230
 1504SOL    HW1 4347   0.918   1.671   1.165 -0.1489  0.2276 -0.2110
 1504SOL    HW2 4348   0.886   1.811   1.213  0.8284  0.2641  0.3705
 1505SOL     OW 4349   2.700   1.153   1.994 -0.3993 -0.5775  0.2170
 1505SOL    HW1 4350   2.613   1.146   2.035 -1.1812 -2.1532 -1.5418
 1505SOL    HW2 4351   2.761   1.144   2.067 -1.7117 -0.7390  1.3536
 1506SOL     OW 4352   4.067   0.563   1.703 -0.6103 -0.1193  0.5644
 1506SOL    HW1 4353   4.140   0.510   1.670 -0.9119  0.7580 -1.7434
 1506SOL    HW2 4354   4.099   0.599   1.785  1.3442 -0.2332 -0.0828
 1507SOL     OW 4355   1.454   1.841   3.871 -0.4855 -1.0667  0.2493
 1507SOL    HW1 4356   1.503   1.923   3.879 -3.2910  1.0838 -2.1581
 1507SOL    HW2 4357   1.489   1.799   3.792 -1.6752 -0.0593 -0.8608
 1508SOL     OW 4358   2.784   3.772   2.000 -0.2957 -0.2884 -0.3926
 1508SOL    HW1 4359   2.803   3.740   1.912 -0.0148  0.3248 -0.5675
 1508SOL    HW2 4360   2.815   3.863   1.998  0.4055 -0.4992  0.5710
 1509SOL     OW 4361   2.574   3.384   2.442  0.6019  0.3410 -0.0236
 1509SOL    HW1 4362   2.595   3.441   2.369 -1.3117  1.4771  0.2615
 1509SOL    HW2 4363   2.641   3.404   2.508  1.7091  0.0574 -1.0202
 1510SOL     OW 4364   1.746   2.058   3.994  0.6187 -0.3657  0.4095
 1510SOL    HW1 4365   1.814   2.118   3.964 -0.2259  0.8956  0.9352
 1510SOL    HW2 4366   1.689   2.046   3.919  0.0935  0.4991  0.6661
 1511SOL     OW 4367   2.366   1.262   1.312 -0.0502  0.2195  0.6924
 1511SOL    HW1 4368   2.441   1.285   1.368  1.0647 -0.8825 -0.2707
 1511SOL    HW2 4369   2.383   1.171   1.287 -0.5725  0.6474 -1.3352
 1512SOL     OW 4370   1.526   0.030   4.010  0.3608  0.5041 -0.2342
 1512SOL    HW1 4371   1.470   0.090   4.060 -0.7081 -2.3989  2.3727
 1512SOL    HW2 4372   1.509   0.051   3.918 -3.1490  1.4734  0.4948
 1513SOL     OW 4373   2.468   2.122   0.071 -0.0829 -0.1549  0.7448
 1513SOL    HW1 4374   2.517   2.041   0.060 -1.6669 -1.0960  0.2483
 1513SOL    HW2 4375   2.521   2.188   0.027  1.0049 -1.0006  0.7663
 1514SOL     OW 4376   1.542   0.728   3.175 -0.1544  0.7765 -0.2930
 1514SOL    HW1 4377   1.628   0.727   3.217  0.0471  2.9120 -0.5370
 1514SOL    HW2 4378   1.560   0.726   3.082 -0.3785  0.7808 -0.3368
 1515SOL     OW 4379   4.072   0.799   1.579 -0.9127  0.0943  0.4741
 1515SOL    HW1 4380   4.145   0.858   1.592 -1.1617  0.6575 -0.5870
 1515SOL    HW2 4381   4.075   0.739   1.654 -0.1818  0.9423  1.1317
 1516SOL     OW 4382   1.280   0.967   3.903  0.2671  0.1112 -0.1993
 1516SOL    HW1 4383   1.285   0.896   3.967 -0.1346 -0.1212 -0.4193
 1516SOL    HW2 4384   1.325   1.041   3.945 -2.0619  0.7352  1.3779
 1517SOL     OW 4385   3.290   2.397   0.052  0.7760  0.0778  0.5427
 1517SOL    HW1 4386   3.372   2.432   0.017  0.9788 -0.7225  0.2487
 1517SOL    HW2 4387   3.303   2.303   0.056  0.2111  0.0220  1.3839
 1518SOL     OW 4388   0.224   1.650   1.291 -0.6146  0.0734  0.7734
 1518SOL    HW1 4389   0.266   1.606   1.365 -1.3337 -0.9099  0.6140
 1518SOL    HW2 4390   0.136   1.613   1.288 -0.7886  0.5366 -0.2235
 1519SOL     OW 4391   3.371   1.415   0.885  0.3767 -0.2072  0.0799
 1519SOL    HW1 4392   3.421   1.365   0.820 -0.3936 -1.2692  0.2652
 1519SOL    HW2 4393   3.360   1.354   0.958 -0.6501  0.1952  0.2856
 1520SOL     OW 4394   1.445   2.563   3.951  0.5019 -0.1083  0.1070
 1520SOL    HW1 4395   1.364   2.609   3.926  0.5289  0.1062  0.4014
 1520SOL    HW2 4396   1.512   2.598   3.892  0.2292 -0.8769 -0.6872
 1521SOL     OW 4397   1.417   0.423   2.317 -0.1004 -0.9780 -0.8060
 1521SOL    HW1 4398   1.393   0.511   2.347  2.2195  0.1236 -1.9458
 1521SOL    HW2 4399   1.390   0.420   2.225 -1.1952 -1.8994 -0.4701
 1522SOL     OW 4400   0.026   3.291   2.319 -0.7574 -0.0698  0.0315
 1522SOL    HW1 4401  -0.032   3.346   2.266 -1.6682 -1.6693 -0.6882
 1522SOL    HW2 4402  -0.033   3.244   2.377  0.3338  1.8945  2.8833
 1523SOL     OW 4403   3.348   1.951   1.998 -0.2021  0.4025  0.9293
 1523SOL    HW1 4404   3.333   2.031   1.948  0.4667  0.0708  0.1772
 1523SOL    HW2 4405   3.261   1.913   2.009 -0.4870  1.0687  1.0287
 1524SOL     OW 4406   3.508   2.933   4.029  0.5553 -1.0577  0.4899
 1524SOL    HW1 4407   3.479   2.876   4.101 -1.6689  0.7758  1.1709
 1524SOL    HW2 4408   3.433   2.936   3.969  0.3379  1.5117  0.7704
 1525SOL     OW 4409   4.046   1.568   1.725 -0.7673 -0.0578 -0.4653
 1525SOL    HW1 4410   3.976   1.551   1.661 -0.9990 -0.6292 -0.0622
 1525SOL    HW2 4411   4.119   1.514   1.695 -0.5401  0.5208 -0.8727
 1526SOL     OW 4412   1.304   2.720   1.913  0.0042 -0.2044 -0.4373
 1526SOL    HW1 4413   1.299   2.681   2.000  1.6726 -1.4357 -0.8564
 1526SOL    HW2 4414   1.254   2.660   1.857 -0.7177  0.3652 -0.4176
 1527SOL     OW 4415   3.635   0.919   3.986 -0.0946 -0.3928 -0.1378
 1527SOL    HW1 4416   3.704   0.863   4.023  0.1203  2.1351  3.9252
 1527SOL    HW2 4417   3.560   0.904   4.043 -1.2916  0.5246 -1.4345
 1528SOL     OW 4418   2.185   1.640   1.172 -0.2271 -0.7586 -0.0561
 1528SOL    HW1 4419   2.155   1.606   1.256  0.4252 -0.0212  0.4891
 1528SOL    HW2 4420   2.279   1.655   1.184 -0.2874  0.1536 -0.6310
 1529SOL     OW 4421   1.415   1.309   0.359  0.4626 -0.1328 -0.3665
 1529SOL    HW1 4422   1.507   1.295   0.384 -0.1479  0.5457  2.6320
 1529SOL    HW2 4423   1.420   1.367   0.284  2.5150  1.0224  0.5671
 1530SOL     OW 4424   0.508   3.227   0.788  0.3188  0.0231  0.5979
 1530SOL    HW1 4425   0.559   3.277   0.852 -1.0981  0.9957  1.0196
 1530SOL    HW2 4426   0.485   3.147   0.834 -0.6364  0.6883  1.3098
 1531SOL     OW 4427   1.719   3.418   0.260 -0.0819 -0.1664 -0.1842
 1531SOL    HW1 4428   1.733   3.477   0.186  1.3882 -1.2877 -0.8419
 1531SOL    HW2 4429   1.806   3.394   0.290 -0.6476 -0.6702  1.1848
 1532SOL     OW 4430   1.502   2.366   2.106 -0.1354 -0.1406 -0.0514
 1532SOL    HW1 4431   1.435   2.320   2.056 -0.1707 -0.8478  0.6184
 1532SOL    HW2 4432   1.454   2.404   2.180  0.3595 -1.7534  1.1618
 1533SOL     OW 4433   0.427   2.542   2.370  0.1561  0.1163  0.5166
 1533SOL    HW1 4434   0.376   2.623   2.364  0.2001  0.0743 -0.6375
 1533SOL    HW2 4435   0.391   2.496   2.446  1.0091  1.8064  2.0328
 1534SOL     OW 4436   3.422   1.500   0.167  0.0461  0.4426 -0.2915
 1534SOL    HW1 4437   3.452   1.481   0.256  0.3154  0.8637 -0.2908
 1534SOL    HW2 4438   3.327   1.499   0.174  0.0526 -0.4619 -0.2007
 1535SOL     OW 4439   1.026   1.290   2.595 -0.2023 -0.0061  0.5779
 1535SOL    HW1 4440   1.086   1.361   2.617 -0.4500 -0.0090  1.2937
 1535SOL    HW2 4441   0.957   1.295   2.661 -0.7191 -0.3262  0.0702
 1536SOL     OW 4442   1.435   0.155   2.401  0.3149  0.7744  0.2981
 1536SOL    HW1 4443   1.495   0.127   2.332 -0.9513  0.9043 -0.8814
 1536SOL    HW2 4444   1.434   0.250   2.395  0.2641  0.7893  0.5484
 1537SOL     OW 4445   1.882   3.345   1.691 -0.0208 -0.0164  0.1047
 1537SOL    HW1 4446   1.860   3.335   1.599 -0.6991  2.3494 -0.0623
 1537SOL    HW2 4447   1.800   3.328   1.738 -0.1652  0.6353  0.1035
 1538SOL     OW 4448   2.699   1.258   3.386  0.3818  0.0124 -0.4943
 1538SOL    HW1 4449   2.664   1.206   3.315  1.8480 -2.0513  0.2134
 1538SOL    HW2 4450   2.622   1.293   3.430 -0.5755  0.2318 -2.2566
 1539SOL     OW 4451   0.056   4.035   3.093 -0.2003 -0.2003 -0.0869
 1539SOL    HW1 4452   0.027   4.123   3.119 -2.9937 -0.8955 -0.6071
 1539SOL    HW2 4453   0.027   4.026   3.003  1.9424 -0.9518 -0.7488
 1540SOL     OW 4454   3.278   2.224   1.878  0.0015 -0.4707 -0.0649
 1540SOL    HW1 4455   3.245   2.256   1.794 -1.0621  1.2144  0.9236
 1540SOL    HW2 4456   3.354   2.279   1.896 -0.3155 -0.1986  0.4759
 1541SOL     OW 4457   3.392   3.117   1.493  0.0417  0.1093  0.0712
 1541SOL    HW1 4458   3.444   3.057   1.439  1.3630  0.9194  0.4068
 1541SOL    HW2 4459   3.401   3.202   1.449  2.7610  1.2384  2.5107
 1542SOL     OW 4460   2.714   0.300   1.888  0.0290 -0.3508  0.1889
 1542SOL    HW1 4461   2.809   0.302   1.875 -0.0671  0.1113 -0.5486
 1542SOL    HW2 4462   2.685   0.223   1.840 -0.0735  0.0969 -0.4942
 1543SOL     OW 4463   1.844   0.421   3.485  0.6271  0.6046 -0.0614
 1543SOL    HW1 4464   1.832   0.516   3.478  1.3054  0.7539  0.6981
 1543SOL    HW2 4465   1.885   0.396   3.402 -0.3582  0.8336 -0.6315
 1544SOL     OW 4466   3.011   3.740   2.616  1.1088  0.8117  0.6955
 1544SOL    HW1 4467   3.033   3.722   2.525 -0.4066  0.6394  0.3359
 1544SOL    HW2 4468   3.038   3.661   2.663  2.8815  1.3227  0.5949
 1545SOL     OW 4469   3.890   1.605   0.490  0.1092  0.1140  0.0873
 1545SOL    HW1 4470   3.968   1.658   0.505 -1.2139  2.4947 -0.8826
 1545SOL    HW2 4471   3.850   1.596   0.577  0.4359  0.5983  0.2943
 1546SOL     OW 4472   0.985   3.875   1.956 -0.2880  0.4638  0.1656
 1546SOL    HW1 4473   0.923   3.807   1.982 -0.6000  0.9556  0.7641
 1546SOL    HW2 4474   0.993   3.866   1.861 -0.2765 -0.4340  0.2404
 1547SOL     OW 4475   3.494   0.097   1.849 -0.5542 -0.1868 -0.6496
 1547SOL    HW1 4476   3.559   0.146   1.899 -1.2435  1.3692 -1.2433
 1547SOL    HW2 4477   3.547   0.038   1.794  0.2252 -1.8715  1.7250
 1548SOL     OW 4478   0.305   2.749   1.294 -0.5220  0.2443  0.0335
 1548SOL    HW1 4479   0.390   2.705   1.298 -1.0174 -0.6561  1.8111
 1548SOL    HW2 4480   0.319   2.824   1.236  0.7937 -1.3266 -1.8157
 1549SOL     OW 4481   1.538   3.882   0.882 -0.6277  0.3216  0.2210
 1549SOL    HW1 4482   1.467   3.828   0.848 -0.0582 -0.2207 -0.1353
 1549SOL    HW2 4483   1.495   3.961   0.915 -1.4085 -0.0965  0.2134
 1550SOL     OW 4484   2.831   3.976   1.350  0.3491  0.0367 -0.3602
 1550SOL    HW1 4485   2.797   3.993   1.437  1.1922 -1.2966  0.2670
 1550SOL    HW2 4486   2.754   3.963   1.295 -0.1803  0.6649  0.2397
 1551SOL     OW 4487   2.852   2.017   0.137  0.1972 -0.1557  0.2563
 1551SOL    HW1 4488   2.870   2.006   0.044 -1.8248  0.4175 -0.2370
 1551SOL    HW2 4489   2.769   1.972   0.151  0.5101 -0.3061  1.8189
 1552SOL     OW 4490   2.022   3.990   2.730 -0.1917  0.0967  0.1353
 1552SOL    HW1 4491   1.951   3.926   2.734 -1.7970  1.8075  0.0709
 1552SOL    HW2 4492   1.985   4.064   2.683  1.7456  0.9470 -0.1428
 1553SOL     OW 4493   1.032   2.894   2.498  0.4426  0.1474 -0.7283
 1553SOL    HW1 4494   1.126   2.910   2.495  0.6527 -0.1660  1.9672
 1553SOL    HW2 4495   1.025   2.798   2.496  0.3940  0.0608  1.4031
 1554SOL     OW 4496   0.175   0.344   2.035  0.0242  0.9272  0.0654
 1554SOL    HW1 4497   0.166   0.338   1.940  1.2178  0.1588 -0.0238
 1554SOL    HW2 4498   0.122   0.271   2.068  1.0130  0.0901 -0.1294
 1555SOL     OW 4499   2.973   1.807   0.776  0.5739  0.0112  0.1175
 1555SOL    HW1 4500   2.994   1.717   0.802  3.1110  0.4690 -0.1598
 1555SOL    HW2 4501   2.890   1.825   0.821 -0.1919 -2.5511 -0.0959
 1556SOL     OW 4502   2.879   3.105   1.424 -0.1778 -1.1111 -0.5416
 1556SOL    HW1 4503   2.931   3.185   1.415  0.0292 -1.1752  0.0531
 1556SOL    HW2 4504   2.793   3.135   1.453  0.2174 -1.1841  0.7270
 1557SOL     OW 4505   3.965   2.840   2.782 -0.2053  0.2433 -0.1278
 1557SOL    HW1 4506   4.009   2.765   2.821 -1.1165 -0.7377 -0.9188
 1557SOL    HW2 4507   3.974   2.910   2.847 -0.9530 -1.0874  1.4716
 1558SOL     OW 4508   1.851   1.025   1.025 -0.0893  0.6346 -0.3451
 1558SOL    HW1 4509   1.840   1.075   0.944 -0.9735  1.4392  0.2489
 1558SOL    HW2 4510   1.945   1.014   1.035  0.0212  0.3648 -1.5722
 1559SOL     OW 4511   0.519   1.348   1.583 -0.2914  0.2748 -0.5507
 1559SOL    HW1 4512   0.541   1.274   1.527  1.6624  0.4131 -0.0524
 1559SOL    HW2 4513   0.596   1.359   1.639 -0.4512  2.7975 -0.7220
 1560SOL     OW 4514   0.548   1.137   1.382 -0.2125  0.9122  0.0554
 1560SOL    HW1 4515   0.594   1.079   1.321  2.0683 -0.8397  3.1412
 1560SOL    HW2 4516   0.455   1.123   1.364  0.3239 -2.0430 -0.8290
 1561SOL     OW 4517   2.660   2.084   3.776 -0.0325 -0.6680 -0.8964
 1561SOL    HW1 4518   2.697   2.172   3.784  2.0986 -1.3709 -2.1465
 1561SOL    HW2 4519   2.587   2.094   3.715  0.7520  0.1002 -1.7315
 1562SOL     OW 4520   0.842   0.978   2.837 -1.3770  0.0313 -0.1207
 1562SOL    HW1 4521   0.762   0.973   2.889 -1.6742  0.5909 -0.5218
 1562SOL    HW2 4522   0.859   1.071   2.826 -1.4645 -0.0778 -1.2525
 1563SOL     OW 4523   3.164   2.800   0.201 -0.7071  0.3847 -0.1453
 1563SOL    HW1 4524   3.105   2.730   0.230 -0.2003 -0.6667 -1.4946
 1563SOL    HW2 4525   3.139   2.815   0.110 -0.4437  1.6089 -0.0246
 1564SOL     OW 4526   3.032   0.828   2.996  0.5163 -0.1234  0.0970
 1564SOL    HW1 4527   2.987   0.830   3.080  1.0275  1.8692  0.3761
 1564SOL    HW2 4528   2.983   0.889   2.941  1.3210  0.0676 -0.4228
 1565SOL     OW 4529   3.948   2.513   1.284 -0.1400 -0.1596 -0.0223
 1565SOL    HW1 4530   3.930   2.460   1.207  0.3355  3.1183 -2.6206
 1565SOL    HW2 4531   4.043   2.516   1.290 -0.1602  0.2967  0.1485
 1566SOL     OW 4532   2.646   2.483   0.908  0.1751  0.0210 -0.0125
 1566SOL    HW1 4533   2.712   2.526   0.963  0.4734  0.3564 -0.6142
 1566SOL    HW2 4534   2.563   2.505   0.949  0.4586 -1.2716  1.3657
 1567SOL     OW 4535   1.670   3.243   3.319  0.1783 -0.6736  0.2840
 1567SOL    HW1 4536   1.643   3.187   3.393  1.6229 -0.5398  0.9550
 1567SOL    HW2 4537   1.631   3.328   3.339 -1.1218 -1.1380 -0.1754
 1568SOL     OW 4538   3.235   3.455   1.621  0.4832 -0.2933  0.1362
 1568SOL    HW1 4539   3.281   3.392   1.676 -1.2908 -1.8722 -0.1017
 1568SOL    HW2 4540   3.262   3.541   1.654  2.5584 -1.1520  0.8072
 1569SOL     OW 4541   0.544   0.780   3.315  0.2893 -0.5012 -0.5885
 1569SOL    HW1 4542   0.586   0.694   3.316 -0.4450 -0.9166  1.8472
 1569SOL    HW2 4543   0.612   0.840   3.283  1.6565 -1.6228  0.1141
 1570SOL     OW 4544   3.929   3.876   3.376  0.3632  0.4953  0.8656
 1570SOL    HW1 4545   3.840   3.880   3.413 -0.3740  1.4738 -0.9044
 1570SOL    HW2 4546   3.922   3.810   3.307  1.4767 -0.6150  1.7695
 1571SOL     OW 4547   1.064   2.581   0.039  0.6401 -0.2085 -0.0881
 1571SOL    HW1 4548   1.130   2.589   0.108  0.4438 -0.6983  0.1636
 1571SOL    HW2 4549   1.099   2.631  -0.035  0.4945  0.9581  0.6622
 1572SOL     OW 4550   3.738   1.341   0.803 -0.1422 -0.0168 -0.4011
 1572SOL    HW1 4551   3.746   1.434   0.782  0.1812 -0.2396 -1.3100
 1572SOL    HW2 4552   3.772   1.333   0.892 -1.7534  0.9946  0.3353
 1573SOL     OW 4553   0.464   2.711   0.402  0.1044  0.0204  0.0806
 1573SOL    HW1 4554   0.430   2.736   0.316 -2.9048  0.3662  1.2551
 1573SOL    HW2 4555   0.386   2.700   0.457  1.8971 -0.3276  2.7580
 1574SOL     OW 4556   0.424   2.455   2.929 -0.2239 -0.5034  0.4317
 1574SOL    HW1 4557   0.502   2.441   2.875  0.4502  0.8290  1.0297
 1574SOL    HW2 4558   0.388   2.538   2.899 -0.9210 -0.6876  0.7457
 1575SOL     OW 4559   1.955   3.356   0.411 -0.2213 -0.0403 -0.1227
 1575SOL    HW1 4560   2.026   3.376   0.350 -0.5789  1.9109  0.0300
 1575SOL    HW2 4561   1.999   3.343   0.495  0.2017 -1.9735 -0.5964
 1576SOL     OW 4562   2.028   3.086   1.230 -0.4585  0.4681  0.4342
 1576SOL    HW1 4563   2.027   3.166   1.178  0.6378  0.6831  0.7024
 1576SOL    HW2 4564   2.097   3.101   1.294  0.9618 -1.3251 -0.5726
 1577SOL     OW 4565   3.690   0.236   1.963  0.3511 -0.7194 -0.0349
 1577SOL    HW1 4566   3.759   0.205   1.905 -1.4282 -1.1250 -2.0946
 1577SOL    HW2 4567   3.701   0.331   1.967 -0.6414 -0.3934 -2.8113
 1578SOL     OW 4568   1.851   2.174   0.844 -0.1502 -0.2397 -0.1504
 1578SOL    HW1 4569   1.779   2.234   0.824 -1.7854 -1.8370  0.6598
 1578SOL    HW2 4570   1.921   2.230   0.876 -1.5110  1.2619  0.3245
 1579SOL     OW 4571   3.829   1.083   3.255  0.2755  0.1193 -0.1062
 1579SOL    HW1 4572   3.898   1.125   3.205  0.6655 -0.8840 -0.4366
 1579SOL    HW2 4573   3.867   1.068   3.342 -0.3620  1.7530  0.4940
 1580SOL     OW 4574   3.133   3.551   3.481  0.3954 -0.0915 -0.1250
 1580SOL    HW1 4575   3.112   3.643   3.496 -0.9748 -0.5432  0.9138
 1580SOL    HW2 4576   3.120   3.539   3.386 -0.9107  0.4472 -0.0377
 1581SOL     OW 4577   2.274   2.239   2.174 -0.0616  0.1045  0.4616
 1581SOL    HW1 4578   2.345   2.279   2.124  0.2694 -0.1398  0.7259
 1581SOL    HW2 4579   2.280   2.279   2.261 -0.1648 -0.0102  0.5228
 1582SOL     OW 4580   0.401   2.757   0.892  0.1111 -0.0715  0.0899
 1582SOL    HW1 4581   0.324   2.717   0.933 -1.7188  1.4291 -1.7008
 1582SOL    HW2 4582   0.417   2.704   0.814 -1.0235  1.3164 -1.1467
 1583SOL     OW 4583   3.580   0.068   0.927 -0.2960 -0.3120  0.2233
 1583SOL    HW1 4584   3.503   0.093   0.877 -0.9278 -1.1844  0.7315
 1583SOL    HW2 4585   3.654   0.091   0.871 -0.8969  1.0208 -0.0472
 1584SOL     OW 4586   3.457   3.405   2.716  0.0135  0.4118  0.2158
 1584SOL    HW1 4587   3.472   3.311   2.721 -1.1949  0.2123  0.3297
 1584SOL    HW2 4588   3.543   3.442   2.695  0.4363 -0.7335 -0.1258
 1585SOL     OW 4589   2.524   2.536   3.191  0.0300  0.0596  0.0949
 1585SOL    HW1 4590   2.448   2.593   3.196 -0.1887 -0.1789 -0.4276
 1585SOL    HW2 4591   2.598   2.593   3.212  0.0629  1.0814 -2.4544
 1586SOL     OW 4592   2.640   2.311   4.040  0.4186  0.3362 -0.3521
 1586SOL    HW1 4593   2.621   2.325   3.947  2.3377 -1.4578 -1.0990
 1586SOL    HW2 4594   2.729   2.344   4.052  0.0412  0.9471  0.9370
 1587SOL     OW 4595   0.641   0.641   3.843  0.5918  0.3397 -0.3261
 1587SOL    HW1 4596   0.718   0.605   3.887 -1.1147 -1.8532  1.1114
 1587SOL    HW2 4597   0.658   0.734   3.836  2.6975  0.1464  1.3878
 1588SOL     OW 4598   0.334   1.559   2.377 -0.0899  0.8605 -0.6214
 1588SOL    HW1 4599   0.285   1.572   2.458  1.3241  1.1472  0.2416
 1588SOL    HW2 4600   0.268   1.557   2.308 -1.4845 -0.8430  0.6624
 1589SOL     OW 4601   2.966   3.024   1.824 -0.1296 -0.1134  0.4877
 1589SOL    HW1 4602   2.886   3.073   1.843  0.6228  1.4429 -0.2056
 1589SOL    HW2 4603   3.001   3.000   1.910  0.6516  2.5570  1.0016
 1590SOL     OW 4604   0.803   2.930   1.291 -0.7233 -0.1826  0.3141
 1590SOL    HW1 4605   0.788   2.997   1.225 -0.0224 -0.4952 -0.1727
 1590SOL    HW2 4606   0.797   2.847   1.244 -0.9874 -0.4476  0.7963
 1591SOL     OW 4607   3.930   3.302   4.018 -0.6711  0.1403  0.0240
 1591SOL    HW1 4608   3.952   3.390   3.985  3.2115 -0.0946  1.5133
 1591SOL    HW2 4609   3.932   3.246   3.940  1.2562  0.7264 -0.4001
 1592SOL     OW 4610   0.565   1.888   2.954 -0.3305 -0.1154  0.4179
 1592SOL    HW1 4611   0.584   1.849   2.869  0.8275  0.8601  0.2060
 1592SOL    HW2 4612   0.648   1.888   3.000 -1.2131 -1.9454  2.1454
 1593SOL     OW 4613   1.962   0.822   1.801  0.3128 -0.4803 -0.4414
 1593SOL    HW1 4614   1.928   0.769   1.729  0.4580  0.5174 -1.2817
 1593SOL    HW2 4615   1.927   0.910   1.785 -1.3785 -0.6386  1.9077
 1594SOL     OW 4616   0.584   0.280   1.495 -0.2691 -0.1264  0.0290
 1594SOL    HW1 4617   0.625   0.304   1.578  0.0179 -0.6492  0.0423
 1594SOL    HW2 4618   0.657   0.267   1.434 -0.4700  0.1092 -0.2677
 1595SOL     OW 4619   2.549   0.368   1.273 -0.3754  0.5832 -0.1127
 1595SOL    HW1 4620   2.512   0.425   1.340  0.1382 -0.4403  1.0721
 1595SOL    HW2 4621   2.500   0.390   1.193  0.3807  3.2929  0.0618
 1596SOL     OW 4622   1.387   1.980   2.173 -0.0510 -0.1317  0.0176
 1596SOL    HW1 4623   1.432   1.906   2.132 -0.0399  0.4494 -1.0558
 1596SOL    HW2 4624   1.360   2.036   2.100 -0.4506  0.7103  0.7806
 1597SOL     OW 4625   1.472   1.336   2.301 -0.4359 -0.0894 -0.0807
 1597SOL    HW1 4626   1.517   1.258   2.334  0.2842  0.3085 -0.0916
 1597SOL    HW2 4627   1.391   1.303   2.263 -0.9987 -0.6316  1.5066
 1598SOL     OW 4628   2.563   2.681   2.709 -0.8237 -0.2353 -0.3634
 1598SOL    HW1 4629   2.576   2.707   2.801 -0.9787 -0.6123 -0.2330
 1598SOL    HW2 4630   2.494   2.614   2.713 -1.0417 -0.0396 -0.7878
 1599SOL     OW 4631   3.705   1.938   3.023  0.4329 -0.4622  0.0943
 1599SOL    HW1 4632   3.677   1.975   3.107  1.8052  0.3712  0.2211
 1599SOL    HW2 4633   3.688   2.007   2.960 -0.7379 -1.1453 -0.3665
 1600SOL     OW 4634   1.901   1.413   3.072 -0.0872  0.0190 -0.3216
 1600SOL    HW1 4635   1.879   1.442   2.983 -1.4277  1.1445  0.3382
 1600SOL    HW2 4636   1.994   1.392   3.068 -0.1649 -0.1316 -2.0375
 1601SOL     OW 4637   1.982   2.193   1.740 -0.4300 -0.0248 -0.2274
 1601SOL    HW1 4638   1.942   2.272   1.776  0.6428  0.6168 -0.4126
 1601SOL    HW2 4639   2.035   2.158   1.811 -3.9414 -2.9100  1.3096
 1602SOL     OW 4640   2.816   1.954   2.086 -0.2816 -0.1187  0.5517
 1602SOL    HW1 4641   2.828   2.000   2.003  0.4724 -0.0413  0.6977
 1602SOL    HW2 4642   2.727   1.918   2.081 -0.3827  0.2121 -0.1223
 1603SOL     OW 4643   1.349   2.197   4.020 -0.3291 -1.0063 -0.6784
 1603SOL    HW1 4644   1.254   2.186   4.010 -0.3167 -1.2487 -0.5250
 1603SOL    HW2 4645   1.363   2.194   4.114 -0.4043  0.9341 -0.6128
 1604SOL     OW 4646   1.547   1.219   1.350  0.4835  0.3806 -0.1713
 1604SOL    HW1 4647   1.462   1.254   1.324  1.2735  2.6599  0.0440
 1604SOL    HW2 4648   1.597   1.296   1.379  1.8798 -1.1408  1.8148
 1605SOL     OW 4649   0.367   3.728   0.788  0.5832  0.1722 -0.0648
 1605SOL    HW1 4650   0.376   3.764   0.700 -0.1000 -0.4018 -0.3812
 1605SOL    HW2 4651   0.348   3.635   0.774  1.4277 -0.1276  0.7141
 1606SOL     OW 4652   0.308   2.675   2.822  0.1465 -0.3936  0.0180
 1606SOL    HW1 4653   0.318   2.760   2.779  0.1178  0.5411  1.7730
 1606SOL    HW2 4654   0.217   2.672   2.850 -0.2667 -1.6811 -1.3071
 1607SOL     OW 4655   1.115   0.227   3.931  0.1946  0.6016  0.2774
 1607SOL    HW1 4656   1.025   0.253   3.953  0.1827 -0.6786  1.8741
 1607SOL    HW2 4657   1.143   0.171   4.003  1.7358 -0.2979 -0.9418
 1608SOL     OW 4658   3.775   0.672   0.390  0.3179 -0.6913 -0.2844
 1608SOL    HW1 4659   3.804   0.683   0.480  0.4592 -0.8368 -0.3115
 1608SOL    HW2 4660   3.822   0.594   0.359  1.6405  0.3606 -1.0345
 1609SOL     OW 4661   3.591   0.014   3.959 -0.1541  0.0594  0.1857
 1609SOL    HW1 4662   3.677   0.045   3.931 -0.4688  0.7742 -0.0389
 1609SOL    HW2 4663   3.563  -0.044   3.888 -0.8953  1.7731 -1.0081
 1610SOL     OW 4664   0.252   1.930   0.029 -0.3407 -0.7861  0.2537
 1610SOL    HW1 4665   0.181   1.951   0.089  0.1053  1.7979  0.0005
 1610SOL    HW2 4666   0.313   1.878   0.081 -0.4181  0.5843  1.8391
 1611SOL     OW 4667   0.105   2.081   1.823  0.2063 -0.0064  0.3603
 1611SOL    HW1 4668   0.017   2.116   1.833  1.1291  1.8823  2.7335
 1611SOL    HW2 4669   0.097   1.988   1.845 -1.2699 -0.0130 -0.1230
 1612SOL     OW 4670   3.718   0.477   1.829  0.1161  0.1678  0.3683
 1612SOL    HW1 4671   3.717   0.426   1.748  1.9050 -0.4038  0.6507
 1612SOL    HW2 4672   3.734   0.567   1.801 -1.2248  0.2965 -0.0206
 1613SOL     OW 4673   0.926   1.533   1.018  0.0442 -0.8305 -0.2150
 1613SOL    HW1 4674   0.852   1.476   1.038 -1.6809  0.8541 -1.3904
 1613SOL    HW2 4675   0.923   1.543   0.923  0.6139  0.7583 -0.0983
 1614SOL     OW 4676   0.677   0.576   3.095 -0.3022  0.1952 -0.1790
 1614SOL    HW1 4677   0.608   0.607   3.037  2.0818  1.7694 -2.4237
 1614SOL    HW2 4678   0.744   0.644   3.091  1.8596 -1.7195  0.9730
 1615SOL     OW 4679   2.661   0.104   2.931 -0.4296 -0.1540  0.1821
 1615SOL    HW1 4680   2.569   0.131   2.939 -0.9703 -1.3787 -1.4393
 1615SOL    HW2 4681   2.681   0.117   2.839  1.6251  1.7510  0.7999
 1616SOL     OW 4682   1.126   0.754   1.762 -0.2561 -0.0354  0.0500
 1616SOL    HW1 4683   1.081   0.813   1.700  0.5096  0.8447  0.3182
 1616SOL    HW2 4684   1.175   0.812   1.820  1.8442 -0.9780 -0.6831
 1617SOL     OW 4685   2.230   3.486   2.860 -0.0685  0.5115 -0.5754
 1617SOL    HW1 4686   2.271   3.469   2.775 -1.5177  1.6285 -1.5686
 1617SOL    HW2 4687   2.143   3.520   2.837 -1.4498 -1.4277  1.3934
 1618SOL     OW 4688   1.172   3.072   0.179 -0.0650  0.0329 -0.5540
 1618SOL    HW1 4689   1.121   3.040   0.254 -1.1910 -2.1550 -2.1581
 1618SOL    HW2 4690   1.257   3.028   0.188 -0.6148 -1.1821 -1.1897
 1619SOL     OW 4691   3.581   1.986   1.743 -0.2731 -0.4644  0.0010
 1619SOL    HW1 4692   3.642   1.922   1.780  0.0913  0.1083  0.4153
 1619SOL    HW2 4693   3.572   2.053   1.811  0.2016  0.4751 -0.8346
 1620SOL     OW 4694   3.736   0.160   1.530 -0.1335  0.3526 -0.0398
 1620SOL    HW1 4695   3.738   0.250   1.499  0.3081  0.5987  0.6804
 1620SOL    HW2 4696   3.826   0.129   1.521 -0.3947 -0.2105 -0.8162
 1621SOL     OW 4697   3.924   1.063   3.533  0.3699  0.1442  0.1513
 1621SOL    HW1 4698   4.008   1.020   3.547 -0.3032 -1.5718 -0.6588
 1621SOL    HW2 4699   3.920   1.133   3.598  2.6681  0.6750 -0.2157
 1622SOL     OW 4700   2.147   0.870   0.754 -0.0629 -0.7837 -0.1391
 1622SOL    HW1 4701   2.157   0.829   0.840 -3.8201 -0.6952  0.5396
 1622SOL    HW2 4702   2.073   0.930   0.765  1.4853  1.8394 -2.6245
 1623SOL     OW 4703   1.100   3.229   0.669  0.0592  0.5552 -0.4422
 1623SOL    HW1 4704   1.114   3.235   0.574 -0.6732  0.5210 -0.5597
 1623SOL    HW2 4705   1.187   3.235   0.707  0.4652 -0.3954 -1.1738
 1624SOL     OW 4706   3.635   2.700   0.544 -0.6464 -0.0496 -0.7028
 1624SOL    HW1 4707   3.588   2.619   0.526  0.9827 -1.7361  1.8926
 1624SOL    HW2 4708   3.596   2.734   0.624  0.2505  0.4035 -0.4365
 1625SOL     OW 4709   3.866   3.648   3.631  0.0109 -0.1094 -0.0304
 1625SOL    HW1 4710   3.835   3.559   3.611 -0.5110 -0.0755  0.5860
 1625SOL    HW2 4711   3.846   3.659   3.724  0.4939  0.4888  0.0062
 1626SOL     OW 4712   1.146   2.239   0.438  0.1433  0.1880 -0.3401
 1626SOL    HW1 4713   1.120   2.161   0.486 -0.0809  0.2363 -0.3794
 1626SOL    HW2 4714   1.187   2.206   0.358 -1.0996  0.1084 -0.9616
 1627SOL     OW 4715   3.691   3.118   0.017 -0.0910  0.2153  0.6058
 1627SOL    HW1 4716   3.618   3.062  -0.008  1.5066 -1.9905  0.6614
 1627SOL    HW2 4717   3.677   3.199  -0.033 -1.5556 -0.8144 -0.7678
 1628SOL     OW 4718   1.257   1.327   1.855 -0.6643  0.3082 -0.2492
 1628SOL    HW1 4719   1.199   1.401   1.835 -1.9996 -0.7649 -0.4466
 1628SOL    HW2 4720   1.209   1.276   1.920  0.8897  0.3662  1.0131
 1629SOL     OW 4721   2.828   0.067   0.252  0.1710  0.0587  0.7043
 1629SOL    HW1 4722   2.805   0.055   0.344 -0.4829  1.0858  0.6911
 1629SOL    HW2 4723   2.923   0.071   0.251  0.1595  0.6128  1.4147
 1630SOL     OW 4724   2.205   3.856   3.895 -0.5564 -0.4529  0.2083
 1630SOL    HW1 4725   2.299   3.861   3.913 -0.7047  0.3255  0.8161
 1630SOL    HW2 4726   2.180   3.768   3.925  0.1101 -0.9587 -0.6734
 1631SOL     OW 4727   3.712   0.750   1.764  0.1694  0.5360  0.5216
 1631SOL    HW1 4728   3.715   0.834   1.809  0.4429  1.1248 -0.5601
 1631SOL    HW2 4729   3.731   0.771   1.673 -0.9310 -0.5453  0.0138
 1632SOL     OW 4730   2.181   1.513   0.756  0.2711  0.2941  0.0838
 1632SOL    HW1 4731   2.175   1.421   0.782  1.0952 -0.4709 -2.2266
 1632SOL    HW2 4732   2.274   1.533   0.756  0.1246  1.0311  0.1535
 1633SOL     OW 4733   2.024   0.179   2.617  0.2807  0.1743 -0.2980
 1633SOL    HW1 4734   2.104   0.171   2.565 -0.5912  0.6730 -1.7781
 1633SOL    HW2 4735   1.953   0.160   2.556 -0.7112 -2.3007  1.4516
 1634SOL     OW 4736   3.721   2.982   3.794 -0.2847  0.2336  0.0690
 1634SOL    HW1 4737   3.681   3.053   3.744 -0.8933  1.4962  2.2363
 1634SOL    HW2 4738   3.648   2.923   3.816 -0.6951  1.4410  2.2275
 1635SOL     OW 4739   0.112   3.942   3.390  0.3687 -0.3944  0.3472
 1635SOL    HW1 4740   0.120   3.974   3.300  2.6313 -1.9374 -0.0842
 1635SOL    HW2 4741   0.028   3.897   3.393 -0.4864  1.0781 -0.4756
 1636SOL     OW 4742   0.031   3.533   0.466  0.0930  0.3847 -0.0744
 1636SOL    HW1 4743  -0.050   3.576   0.494  0.6518  1.4605 -0.1829
 1636SOL    HW2 4744   0.068   3.497   0.546 -1.3784 -1.7300 -0.2596
 1637SOL     OW 4745   1.264   0.374   2.051 -0.0542  0.3521  0.2567
 1637SOL    HW1 4746   1.205   0.301   2.070  1.1130 -0.8870 -0.6765
 1637SOL    HW2 4747   1.347   0.332   2.028  0.6640  1.9874 -0.2427
 1638SOL     OW 4748   1.198   1.504   2.603  0.1549  0.0021 -0.0728
 1638SOL    HW1 4749   1.291   1.498   2.582  0.9451  2.5367  2.0860
 1638SOL    HW2 4750   1.162   1.564   2.538 -0.0692 -1.1641 -1.0535
 1639SOL     OW 4751   1.558   3.034   0.568  0.1705 -0.0849 -0.1738
 1639SOL    HW1 4752   1.617   2.967   0.531 -0.1619 -0.6789  0.3505
 1639SOL    HW2 4753   1.527   2.995   0.650  0.2622  0.8729  0.3307
 1640SOL     OW 4754   2.424   1.739   1.724 -0.3192  0.4303 -0.3701
 1640SOL    HW1 4755   2.353   1.704   1.778  0.6994 -0.0360  0.7261
 1640SOL    HW2 4756   2.392   1.732   1.634 -1.8324  0.6757  0.1232
 1641SOL     OW 4757   1.905   2.825   2.191  0.1922 -0.0058 -0.5408
 1641SOL    HW1 4758   1.880   2.744   2.237  0.1095 -0.9628 -2.2026
 1641SOL    HW2 4759   1.827   2.881   2.197  0.0089 -0.3137  0.0329
 1642SOL     OW 4760   1.073   1.425   3.311 -0.1582  0.0239 -0.1112
 1642SOL    HW1 4761   1.104   1.508   3.277 -2.0410  0.1351 -1.6952
 1642SOL    HW2 4762   0.985   1.443   3.343  0.1487 -0.9511  1.4175
 1643SOL     OW 4763   1.602   2.863   2.176 -0.0936  0.1315  0.6461
 1643SOL    HW1 4764   1.529   2.803   2.190 -0.4364  0.3587 -0.1021
 1643SOL    HW2 4765   1.574   2.945   2.218 -0.6941  0.5079 -0.4345
 1644SOL     OW 4766   3.073   2.977   2.654  0.2484  0.2330  0.2385
 1644SOL    HW1 4767   3.092   2.883   2.663 -0.8055 -0.0165  0.0899
 1644SOL    HW2 4768   3.104   3.016   2.735 -2.7691 -0.8791  2.0811
 1645SOL     OW 4769   3.870   0.763   2.826 -0.0591 -0.3254 -0.4405
 1645SOL    HW1 4770   3.843   0.673   2.805  0.2228 -0.7306  0.8434
 1645SOL    HW2 4771   3.802   0.795   2.886 -0.0642  0.2576 -0.7517
 1646SOL     OW 4772   2.012   1.760   0.193  0.2909  0.6256 -0.0216
 1646SOL    HW1 4773   2.100   1.795   0.181 -0.6202  2.3890 -2.3421
 1646SOL    HW2 4774   1.986   1.731   0.106 -0.8207 -1.5555  0.9461
 1647SOL     OW 4775   3.506   2.670   1.628  0.7769 -0.5149 -0.3212
 1647SOL    HW1 4776   3.555   2.752   1.628  0.3140 -0.2217  0.5594
 1647SOL    HW2 4777   3.426   2.690   1.676 -0.5519 -0.7979 -2.3324
 1648SOL     OW 4778   3.447   3.674   4.050 -0.4791  0.0488  0.0871
 1648SOL    HW1 4779   3.524   3.724   4.022 -0.1767  0.9926  2.3932
 1648SOL    HW2 4780   3.378   3.739   4.059 -1.4375 -0.7081 -1.4184
 1649SOL     OW 4781   3.896   2.190   0.584  0.7067 -0.2244  0.2944
 1649SOL    HW1 4782   3.815   2.155   0.548  1.3220 -0.6187 -0.7543
 1649SOL    HW2 4783   3.911   2.271   0.534 -0.2429  1.1331  2.0943
 1650SOL     OW 4784   3.185   1.572   1.137 -0.2144  0.4824 -0.4012
 1650SOL    HW1 4785   3.100   1.585   1.095  0.3455 -0.5574 -1.9584
 1650SOL    HW2 4786   3.249   1.584   1.066  1.1313  3.2610  1.1227
 1651SOL     OW 4787   3.234   1.143   2.914 -0.2281  0.3518 -0.2456
 1651SOL    HW1 4788   3.309   1.146   2.855 -0.2123 -3.1506 -0.6095
 1651SOL    HW2 4789   3.239   1.225   2.964  1.9373  1.6793 -2.4302
 1652SOL     OW 4790   3.844   1.874   3.762  0.7192 -0.3876 -0.0003
 1652SOL    HW1 4791   3.803   1.961   3.771  0.5095 -0.5242  0.4226
 1652SOL    HW2 4792   3.861   1.865   3.669 -0.8585 -0.6144 -0.2939
 1653SOL     OW 4793   3.884   0.959   0.763 -0.1119 -0.0240 -0.4860
 1653SOL    HW1 4794   3.901   1.047   0.797 -2.3074 -0.2096  1.3188
 1653SOL    HW2 4795   3.838   0.974   0.680 -0.5177  0.5529 -0.1637
 1654SOL     OW 4796   1.615   1.730   2.485  0.4792 -0.1962  0.0976
 1654SOL    HW1 4797   1.598   1.691   2.399  0.4023 -0.9137  0.4321
 1654SOL    HW2 4798   1.550   1.801   2.491  0.3249 -0.2925 -0.3369
 1655SOL     OW 4799   0.958   3.687   0.140  0.4114 -0.1667  0.5688
 1655SOL    HW1 4800   0.957   3.753   0.071  0.0206 -0.7082  0.0379
 1655SOL    HW2 4801   1.009   3.726   0.211 -0.1055  0.8341  0.4051
 1656SOL     OW 4802   2.080   2.564   0.854 -0.3708  0.1490  0.2944
 1656SOL    HW1 4803   1.990   2.573   0.822 -0.3155  0.0437  0.1060
 1656SOL    HW2 4804   2.095   2.644   0.905 -1.0085 -0.4363  1.4208
 1657SOL     OW 4805   2.873   1.950   3.941 -0.8532  0.2626 -0.4247
 1657SOL    HW1 4806   2.952   1.952   3.887 -1.2686  1.0808 -1.0365
 1657SOL    HW2 4807   2.811   2.006   3.894 -0.7485  2.2386  1.6362
 1658SOL     OW 4808   3.829   0.283   0.048 -0.4423  0.6587  0.5183
 1658SOL    HW1 4809   3.911   0.312   0.008  0.6413 -2.0771  0.5277
 1658SOL    HW2 4810   3.786   0.231  -0.020 -0.8417 -0.1634  1.4143
 1659SOL     OW 4811   3.360   3.420   3.222  0.0857  0.6003 -0.1315
 1659SOL    HW1 4812   3.269   3.398   3.242  0.3942 -2.6664 -1.5515
 1659SOL    HW2 4813   3.357   3.454   3.133  0.1558  1.7540  0.2934
 1660SOL     OW 4814   3.862   1.374   1.323  0.0794  0.2296  0.4462
 1660SOL    HW1 4815   3.893   1.385   1.413  0.7647 -0.7859  0.3623
 1660SOL    HW2 4816   3.854   1.279   1.313 -0.4239  0.3576 -0.4260
 1661SOL     OW 4817   1.425   1.607   1.020 -0.7228  0.6412 -0.8281
 1661SOL    HW1 4818   1.334   1.629   1.039 -0.5627 -0.8533  2.3296
 1661SOL    HW2 4819   1.476   1.671   1.070 -0.1601 -0.5158  0.1439
 1662SOL     OW 4820   3.038   0.652   3.654  0.2782  0.2094  0.5472
 1662SOL    HW1 4821   3.105   0.670   3.588 -0.6575  1.4207 -0.1296
 1662SOL    HW2 4822   3.059   0.710   3.727  0.0741  0.4622  0.4067
 1663SOL     OW 4823   3.428   2.570   3.233  0.1125 -0.1818  0.1485
 1663SOL    HW1 4824   3.354   2.546   3.177  0.3989 -0.1797 -0.2362
 1663SOL    HW2 4825   3.475   2.488   3.246 -0.0122 -0.2030  0.4789
 1664SOL     OW 4826   1.171   1.505   1.540  0.1588 -0.6518 -0.0858
 1664SOL    HW1 4827   1.236   1.438   1.519  1.8804  0.7080  0.5880
 1664SOL    HW2 4828   1.219   1.569   1.594 -0.4004  2.7378 -3.1743
 1665SOL     OW 4829   2.807   0.425   1.126 -0.4099  0.0359 -0.0109
 1665SOL    HW1 4830   2.718   0.415   1.160 -0.8336 -1.6389 -1.4209
 1665SOL    HW2 4831   2.794   0.438   1.032  0.8242  0.6944 -0.1021
 1666SOL     OW 4832   1.849   3.221   1.433  0.4999  0.0336  0.0871
 1666SOL    HW1 4833   1.786   3.153   1.410 -2.7527  2.4223  1.1987
 1666SOL    HW2 4834   1.873   3.261   1.350 -1.1873  0.4502 -0.2246
 1667SOL     OW 4835   0.483   1.206   2.133 -0.3439  0.0434  0.0965
 1667SOL    HW1 4836   0.388   1.217   2.130 -0.5007 -1.2960 -1.0465
 1667SOL    HW2 4837   0.516   1.266   2.065 -0.4549 -0.1479 -0.1284
 1668SOL     OW 4838   0.708   2.452   0.104  0.4129  0.0837 -0.4331
 1668SOL    HW1 4839   0.728   2.495   0.187 -0.9174 -0.2394  0.0891
 1668SOL    HW2 4840   0.789   2.408   0.079  0.8954  0.3562  0.5915
 1669SOL     OW 4841   1.614   2.149   1.081  0.8308  0.0149 -0.3825
 1669SOL    HW1 4842   1.630   2.186   0.994  0.3534 -0.7608 -0.8173
 1669SOL    HW2 4843   1.700   2.147   1.123  2.0248 -3.6877 -2.5034
 1670SOL     OW 4844   1.800   1.458   3.867  0.4689 -0.0821  0.0458
 1670SOL    HW1 4845   1.723   1.433   3.816 -0.0118  0.1517  0.6468
 1670SOL    HW2 4846   1.849   1.377   3.878  1.6575  0.1961 -2.5308
 1671SOL     OW 4847   2.694   3.459   2.686 -0.1022  0.3020  0.0381
 1671SOL    HW1 4848   2.697   3.412   2.769 -0.1498 -1.6635 -1.0162
 1671SOL    HW2 4849   2.785   3.462   2.657 -0.1320  0.6675 -0.0308
 1672SOL     OW 4850   1.989   0.527   1.127 -0.1395 -0.6828 -0.1685
 1672SOL    HW1 4851   1.894   0.531   1.134 -0.2247  0.0508 -1.3898
 1672SOL    HW2 4852   2.006   0.448   1.076 -0.1471 -0.4681 -0.5110
 1673SOL     OW 4853   0.525   0.026   4.002  0.1896 -0.4303  0.0427
 1673SOL    HW1 4854   0.567   0.001   3.920 -0.3968 -1.1585 -0.0375
 1673SOL    HW2 4855   0.433   0.038   3.979  0.3654  1.4297  0.1747
 1674SOL     OW 4856   3.688   0.924   3.496 -0.4555 -0.7287 -0.5553
 1674SOL    HW1 4857   3.685   0.904   3.590 -1.7536  0.5290 -0.3034
 1674SOL    HW2 4858   3.771   0.971   3.485 -1.4798  1.4559  0.5006
 1675SOL     OW 4859   3.524   2.696   0.809  1.0876 -0.3422 -0.0252
 1675SOL    HW1 4860   3.453   2.633   0.819 -0.7272  1.7114  0.8016
 1675SOL    HW2 4861   3.576   2.687   0.889  1.4596 -1.4548 -0.3745
 1676SOL     OW 4862   2.711   1.372   3.867 -0.1990  0.0902  0.8031
 1676SOL    HW1 4863   2.806   1.364   3.862 -0.0869  1.2541  0.7443
 1676SOL    HW2 4864   2.694   1.402   3.957 -0.5517 -0.6124  0.9737
 1677SOL     OW 4865   0.710   1.022   1.699 -0.1242 -0.2391 -0.1328
 1677SOL    HW1 4866   0.618   1.034   1.677 -0.3493  1.2975  1.4083
 1677SOL    HW2 4867   0.709   0.989   1.789  0.8163  0.1599  0.0392
 1678SOL     OW 4868   1.472   1.437   2.956 -0.0077  0.4926 -0.1164
 1678SOL    HW1 4869   1.379   1.435   2.933 -0.3405  1.3568  1.0806
 1678SOL    HW2 4870   1.510   1.498   2.892 -0.2773  0.2154 -0.5474
 1679SOL     OW 4871   2.199   2.241   1.329  0.0477  0.3176  0.2296
 1679SOL    HW1 4872   2.116   2.245   1.376  0.5134 -0.3584  1.1437
 1679SOL    HW2 4873   2.182   2.286   1.246 -0.8132  1.4791  1.0009
 1680SOL     OW 4874   1.243   2.666   1.135 -0.5952 -0.0145 -0.2771
 1680SOL    HW1 4875   1.156   2.697   1.160 -0.6560 -1.3255  1.3680
 1680SOL    HW2 4876   1.226   2.592   1.076 -0.7117 -1.2945  1.2820
 1681SOL     OW 4877   3.914   3.028   0.759  0.2523 -0.0622 -0.2065
 1681SOL    HW1 4878   3.831   3.042   0.714 -2.1161 -0.1958  3.6101
 1681SOL    HW2 4879   3.936   2.936   0.743  0.2501  0.2300 -2.0269
 1682SOL     OW 4880   0.771   2.131   0.224  0.6616  1.0092  0.4711
 1682SOL    HW1 4881   0.806   2.052   0.267  2.0454  1.0008 -0.5917
 1682SOL    HW2 4882   0.790   2.202   0.285  0.0979  0.6298  1.0966
 1683SOL     OW 4883   0.672   0.049   3.000 -0.2661  0.2664 -0.4273
 1683SOL    HW1 4884   0.680  -0.038   2.961  2.9202  0.0798  0.4761
 1683SOL    HW2 4885   0.661   0.032   3.094 -3.0105  0.8757 -0.5649
 1684SOL     OW 4886   1.549   2.787   3.792  0.1468  0.7219 -0.0226
 1684SOL    HW1 4887   1.629   2.838   3.806  0.1246  0.2580  2.2286
 1684SOL    HW2 4888   1.478   2.851   3.797  0.3219  1.0186 -1.2083
 1685SOL     OW 4889   2.967   0.084   1.552  0.1979 -0.1099 -0.0977
 1685SOL    HW1 4890   2.977   0.031   1.631 -0.3616  0.9110  0.6911
 1685SOL    HW2 4891   3.027   0.045   1.488 -2.1868 -3.4126 -0.5328
 1686SOL     OW 4892   3.896   2.173   1.819  0.9251  0.6929  0.8450
 1686SOL    HW1 4893   3.888   2.239   1.751 -0.2701 -1.1400 -0.9052
 1686SOL    HW2 4894   3.807   2.159   1.849  0.5572 -2.4528 -1.2724
 1687SOL     OW 4895   3.652   0.975   0.978 -0.1755 -0.0800 -0.5922
 1687SOL    HW1 4896   3.675   1.066   0.997  0.6030  0.0737 -2.1015
 1687SOL    HW2 4897   3.714   0.949   0.909 -1.9615 -0.9707 -1.9495
 1688SOL     OW 4898   1.999   2.814   2.889  0.2529  0.2701 -0.2197
 1688SOL    HW1 4899   1.976   2.903   2.860 -1.7577  0.0721  0.6006
 1688SOL    HW2 4900   1.924   2.786   2.942  2.8823 -0.0844  3.6977
 1689SOL     OW 4901   2.446   2.028   2.276  0.3057  0.0551 -0.3368
 1689SOL    HW1 4902   2.380   2.088   2.242 -0.5429  1.2865  3.0016
 1689SOL    HW2 4903   2.525   2.081   2.282 -0.4280  1.0448  2.5524
 1690SOL     OW 4904   1.545   4.027   3.000 -0.2830 -0.1089 -0.7812
 1690SOL    HW1 4905   1.641   4.024   3.004 -0.3280 -0.8442  0.6946
 1690SOL    HW2 4906   1.520   3.937   2.982 -0.6769  0.5896 -4.3919
 1691SOL     OW 4907   2.272   2.173   0.252  0.0825  0.3942  0.3380
 1691SOL    HW1 4908   2.351   2.142   0.209 -0.6335 -0.2992 -0.5182
 1691SOL    HW2 4909   2.265   2.119   0.331 -1.5944 -2.3619 -1.5502
 1692SOL     OW 4910   1.230   2.864   2.823 -0.3318 -0.0342 -0.8584
 1692SOL    HW1 4911   1.154   2.806   2.820 -1.0524  0.9307 -2.0337
 1692SOL    HW2 4912   1.265   2.853   2.911  0.0835 -2.8877 -1.2801
 1693SOL     OW 4913   3.653   0.420   3.079  0.1227 -0.1481 -0.6940
 1693SOL    HW1 4914   3.598   0.366   3.022  2.0401 -1.2221 -1.6415
 1693SOL    HW2 4915   3.740   0.381   3.072  0.9562  1.2585  1.0133
 1694SOL     OW 4916   0.678   1.843   3.228  0.1765  0.5116 -0.6786
 1694SOL    HW1 4917   0.663   1.937   3.217 -0.6515  0.1476 -3.0795
 1694SOL    HW2 4918   0.628   1.820   3.306 -1.3496  1.6957 -1.2579
 1695SOL     OW 4919   3.890   3.289   0.220 -0.4860 -0.5450  0.2711
 1695SOL    HW1 4920   3.933   3.208   0.246 -0.6638 -0.8871 -0.4914
 1695SOL    HW2 4921   3.846   3.268   0.137 -0.0327  0.4909 -0.2478
 1696SOL     OW 4922   1.506   2.729   1.639  0.0479  0.0958  0.1747
 1696SOL    HW1 4923   1.436   2.786   1.607  0.3872  0.6038  0.3273
 1696SOL    HW2 4924   1.544   2.776   1.714 -0.0607 -0.6041  0.6885
 1697SOL     OW 4925   0.393   0.912   2.736 -0.1839 -0.1544 -0.0644
 1697SOL    HW1 4926   0.397   1.003   2.766 -0.1603 -0.3683  0.6067
 1697SOL    HW2 4927   0.304   0.884   2.757 -0.3175 -0.1625 -0.6436
 1698SOL     OW 4928   3.183   1.111   1.463  0.1972  0.6254 -0.3181
 1698SOL    HW1 4929   3.127   1.164   1.518 -1.9475 -1.0931 -0.7105
 1698SOL    HW2 4930   3.142   1.114   1.376 -0.5643 -2.2525 -0.1733
 1699SOL     OW 4931   2.901   2.890   1.596 -0.2608  0.1497 -0.1179
 1699SOL    HW1 4932   2.921   2.927   1.682 -1.8675  0.4357  0.1571
 1699SOL    HW2 4933   2.894   2.967   1.539  0.1330  0.0023 -0.3685
 1700SOL     OW 4934   1.666   3.261   1.846 -0.6123  0.0439 -0.2125
 1700SOL    HW1 4935   1.657   3.276   1.940 -0.1476 -3.1195  0.4622
 1700SOL    HW2 4936   1.577   3.244   1.816 -0.4663 -2.0495  0.3792
 1701SOL     OW 4937   0.779   0.246   1.298 -0.0247 -0.0511 -0.0975
 1701SOL    HW1 4938   0.795   0.332   1.259 -0.9281  0.1277 -0.0847
 1701SOL    HW2 4939   0.863   0.222   1.338 -0.5988  2.3937  2.9633
 1702SOL     OW 4940   3.209   1.862   3.218 -0.1686  0.2137  0.2138
 1702SOL    HW1 4941   3.141   1.922   3.187 -1.6995 -0.8295  1.4100
 1702SOL    HW2 4942   3.164   1.778   3.228  1.6283 -0.8581 -0.2283
 1703SOL     OW 4943   0.920   1.934   3.383 -0.0850 -0.0045  0.0020
 1703SOL    HW1 4944   0.897   1.892   3.466 -1.2244 -0.9291 -0.7520
 1703SOL    HW2 4945   0.838   1.936   3.333  0.8473 -0.7411 -1.6466
 1704SOL     OW 4946   2.769   0.109   0.854 -0.4252 -0.2238 -0.4956
 1704SOL    HW1 4947   2.743   0.201   0.863  1.1698  0.2328 -0.2716
 1704SOL    HW2 4948   2.750   0.071   0.940  2.9992  1.0384  0.9855
 1705SOL     OW 4949   2.316   3.745   0.352 -0.3629 -0.4718  0.6485
 1705SOL    HW1 4950   2.311   3.784   0.265 -2.0497 -1.8861  0.0681
 1705SOL    HW2 4951   2.410   3.737   0.369  0.0048  0.9847 -0.4775
 1706SOL     OW 4952   0.408   1.474   2.696  0.3051 -0.4210 -0.0262
 1706SOL    HW1 4953   0.321   1.435   2.684  0.9450 -1.5354 -1.2891
 1706SOL    HW2 4954   0.467   1.399   2.702  1.3842  0.3347 -0.8987
 1707SOL     OW 4955   0.457   1.208   0.247 -0.0232  0.0751 -0.6344
 1707SOL    HW1 4956   0.369   1.187   0.280 -1.7157  2.8353 -2.8898
 1707SOL    HW2 4957   0.500   1.252   0.320 -0.8330 -0.5377  0.2387
 1708SOL     OW 4958   0.830   0.317   3.258  0.2069  0.0377  0.3528
 1708SOL    HW1 4959   0.769   0.348   3.190 -0.8312  1.6384  1.9163
 1708SOL    HW2 4960   0.914   0.356   3.235  0.3601 -1.0814 -1.0889
 1709SOL     OW 4961   3.078   3.686   2.353  0.3253 -0.1352 -0.2261
 1709SOL    HW1 4962   3.060   3.595   2.330 -2.8264  0.8240 -2.0462
 1709SOL    HW2 4963   3.111   3.725   2.272  1.3041  0.4737  0.4421
 1710SOL     OW 4964   3.514   2.955   0.721  0.2326 -0.1255  0.3081
 1710SOL    HW1 4965   3.525   2.874   0.771  0.3926 -1.0790 -1.2155
 1710SOL    HW2 4966   3.482   3.018   0.785 -0.1569 -1.4624  1.4835
 1711SOL     OW 4967   1.538   3.806   2.310  0.1861 -0.1777  0.4277
 1711SOL    HW1 4968   1.520   3.828   2.218 -1.9046 -1.4794  0.4446
 1711SOL    HW2 4969   1.626   3.771   2.310 -0.1885 -1.2316 -1.3263
 1712SOL     OW 4970   1.709   1.407   1.093  0.5324  0.3821 -0.1413
 1712SOL    HW1 4971   1.785   1.393   1.150  1.3232  0.9007 -1.0397
 1712SOL    HW2 4972   1.690   1.500   1.102  0.0187  0.2624  0.0468
 1713SOL     OW 4973   3.319   0.403   2.533 -0.1780  0.0447 -0.1370
 1713SOL    HW1 4974   3.282   0.407   2.621  0.6797  0.0779  0.2269
 1713SOL    HW2 4975   3.270   0.333   2.490 -0.5385 -0.0328  0.3979
 1714SOL     OW 4976   1.508   2.138   1.752  0.0352 -0.3291 -0.3063
 1714SOL    HW1 4977   1.462   2.150   1.670  1.9509  1.1483 -1.2421
 1714SOL    HW2 4978   1.557   2.057   1.741  1.6244  0.7111 -1.3751
 1715SOL     OW 4979   1.418   2.412   0.101  0.2671 -0.9955  0.5873
 1715SOL    HW1 4980   1.428   2.483   0.038 -0.2986  0.7839  2.4142
 1715SOL    HW2 4981   1.383   2.339   0.049  2.3947 -0.5620 -1.6722
 1716SOL     OW 4982   2.629   3.382   1.260  0.1629  0.2195 -0.2426
 1716SOL    HW1 4983   2.681   3.332   1.198 -0.2676 -0.9596  0.3133
 1716SOL    HW2 4984   2.556   3.324   1.281 -0.9418  1.5129 -0.3917
 1717SOL     OW 4985   0.136   0.036   3.629  0.0786 -0.1051 -0.4132
 1717SOL    HW1 4986   0.121  -0.026   3.557  0.4470 -1.1189  0.3782
 1717SOL    HW2 4987   0.071   0.012   3.695  0.8691 -0.3360  0.3126
 1718SOL     OW 4988   3.913   0.492   3.493  0.8459 -0.2196  0.0229
 1718SOL    HW1 4989   3.936   0.565   3.551  1.3592 -1.4437  1.3974
 1718SOL    HW2 4990   3.829   0.518   3.455 -0.1849  0.0606  2.3173
 1719SOL     OW 4991   4.044   0.301   2.318  0.4099 -0.7009 -0.5969
 1719SOL    HW1 4992   3.992   0.355   2.258 -1.7504 -0.1273  1.6307
 1719SOL    HW2 4993   3.983   0.236   2.351  1.6569 -1.3243  0.5750
 1720SOL     OW 4994   2.149   1.793   1.408 -0.2476 -0.1880 -0.2326
 1720SOL    HW1 4995   2.063   1.822   1.380 -0.2388  1.1456  0.9933
 1720SOL    HW2 4996   2.208   1.817   1.337 -0.8423 -1.0058 -1.0276
 1721SOL     OW 4997   1.007   3.420   0.094  0.0197 -0.1447 -0.4318
 1721SOL    HW1 4998   0.955   3.373   0.159  0.4187 -0.8553 -0.6112
 1721SOL    HW2 4999   1.010   3.510   0.126  0.2707 -0.4937  0.5749
 1722SOL     OW 5000   3.725   3.910   0.249 -0.3088  0.3511 -0.1220
 1722SOL    HW1 5001   3.669   3.964   0.194 -0.3397  0.4156 -0.0274
 1722SOL    HW2 5002   3.711   3.943   0.338  0.4614  0.8807 -0.1882
 1723SOL     OW 5003   0.394   3.142   0.526 -0.2577 -0.1032  0.6260
 1723SOL    HW1 5004   0.484   3.124   0.501 -0.1682  0.1476  0.7664
 1723SOL    HW2 5005   0.400   3.174   0.616 -0.3105  1.6361  0.0401
 1724SOL     OW 5006   0.147   2.869   3.194 -0.2244 -0.1268  0.2550
 1724SOL    HW1 5007   0.190   2.792   3.156 -0.2405  0.9145 -2.0411
 1724SOL    HW2 5008   0.213   2.907   3.252  0.3193 -1.0194  0.2410
 1725SOL     OW 5009   3.157   3.062   3.322  0.3330 -0.0456  0.3240
 1725SOL    HW1 5010   3.229   3.056   3.259  1.9767  1.7699  1.8775
 1725SOL    HW2 5011   3.084   3.098   3.272  0.9624 -0.4922 -0.9640
 1726SOL     OW 5012   0.694   0.350   2.345  0.1561 -0.2379  0.1523
 1726SOL    HW1 5013   0.620   0.360   2.285 -0.5056  1.2147  1.1468
 1726SOL    HW2 5014   0.695   0.256   2.367 -0.4692 -0.5296 -1.0057
 1727SOL     OW 5015   0.396   1.037   1.846  0.6495 -0.2349  0.9674
 1727SOL    HW1 5016   0.386   1.132   1.846  2.3634 -0.0129  1.6367
 1727SOL    HW2 5017   0.348   1.008   1.923 -4.3168 -0.6137 -1.8022
 1728SOL     OW 5018   0.561   2.661   1.389  0.4515 -0.4641  0.0797
 1728SOL    HW1 5019   0.598   2.573   1.380 -0.9751 -1.1665  0.6563
 1728SOL    HW2 5020   0.567   2.680   1.483  0.4740 -0.0674 -0.0001
 1729SOL     OW 5021   0.817   3.630   1.968  0.2536 -0.0402 -0.2540
 1729SOL    HW1 5022   0.816   3.578   2.048 -0.5288  0.8293  0.3175
 1729SOL    HW2 5023   0.898   3.604   1.924 -0.0104 -1.5625  0.1142
 1730SOL     OW 5024   3.142   1.341   2.651  0.2356 -0.7385  0.1477
 1730SOL    HW1 5025   3.182   1.350   2.565  0.5596  0.2710  0.3912
 1730SOL    HW2 5026   3.205   1.382   2.711 -1.0839  0.7725  0.5595
 1731SOL     OW 5027   1.710   3.336   3.782  0.3140  0.0261  0.3224
 1731SOL    HW1 5028   1.695   3.412   3.839 -0.3119  0.5113 -0.4596
 1731SOL    HW2 5029   1.695   3.260   3.838 -0.3125  0.4952  0.8054
 1732SOL     OW 5030   1.651   1.514   0.453  0.3218  0.3169  0.2463
 1732SOL    HW1 5031   1.713   1.576   0.492  0.6915 -1.9206  3.6822
 1732SOL    HW2 5032   1.595   1.487   0.527 -0.5826 -2.4925 -1.3168
 1733SOL     OW 5033   1.598   3.668   0.519 -0.2842 -0.4570 -0.1572
 1733SOL    HW1 5034   1.565   3.698   0.603 -0.0703  0.3715 -0.3568
 1733SOL    HW2 5035   1.582   3.741   0.459  1.1493 -0.3420 -0.4357
 1734SOL     OW 5036   3.803   0.206   2.432 -0.4293  0.1688 -0.0291
 1734SOL    HW1 5037   3.771   0.146   2.364  0.8467  1.6425 -2.0185
 1734SOL    HW2 5038   3.728   0.264   2.449 -2.0330 -2.3441  2.6230
 1735SOL     OW 5039   2.812   3.684   3.470  0.0940 -0.3161  0.6191
 1735SOL    HW1 5040   2.906   3.691   3.487  0.0641  0.0592  0.6596
 1735SOL    HW2 5041   2.771   3.721   3.548 -0.0780 -0.1673  0.4621
 1736SOL     OW 5042   1.197   1.285   0.136  0.9028 -0.2106 -0.2606
 1736SOL    HW1 5043   1.132   1.324   0.078 -0.3867 -0.7194  0.8113
 1736SOL    HW2 5044   1.262   1.355   0.149  1.2180 -0.0919 -2.2710
 1737SOL     OW 5045   2.981   3.374   0.814 -0.2887 -0.3219  0.2910
 1737SOL    HW1 5046   3.009   3.421   0.893  2.5726  1.4828 -1.6017
 1737SOL    HW2 5047   2.956   3.442   0.752 -1.2833 -1.6099 -0.7983
 1738SOL     OW 5048   2.981   1.836   2.256  0.3357  0.0967 -0.9162
 1738SOL    HW1 5049   3.004   1.878   2.339 -0.9798 -2.0910  0.6587
 1738SOL    HW2 5050   2.916   1.894   2.217 -0.4488  0.2296  0.5337
 1739SOL     OW 5051   2.394   3.036   1.802  0.1509  0.1823  0.0613
 1739SOL    HW1 5052   2.354   2.954   1.773  0.4135  0.1310 -0.1622
 1739SOL    HW2 5053   2.485   3.031   1.771  0.8400 -0.4908  2.0765
 1740SOL     OW 5054   3.225   0.628   2.941  0.1448  0.5018  0.2681
 1740SOL    HW1 5055   3.157   0.691   2.968 -1.0802 -0.7742  0.2832
 1740SOL    HW2 5056   3.210   0.616   2.848  2.7812  2.9979 -0.6196
 1741SOL     OW 5057   2.601   0.993   3.605  0.3066 -0.3172 -0.6448
 1741SOL    HW1 5058   2.543   1.068   3.616  0.7463  0.4879 -3.0711
 1741SOL    HW2 5059   2.678   1.014   3.658 -0.8183 -0.5527  1.1570
 1742SOL     OW 5060   0.417   2.246   1.949 -0.7122  0.1477 -0.2205
 1742SOL    HW1 5061   0.329   2.281   1.961 -1.2290 -1.1646  0.0125
 1742SOL    HW2 5062   0.454   2.245   2.038  0.0550  1.9182 -0.4794
 1743SOL     OW 5063   2.588   1.884   0.140  0.3701 -0.0782  0.1224
 1743SOL    HW1 5064   2.568   1.801   0.097  0.2189  1.1390 -2.3419
 1743SOL    HW2 5065   2.518   1.894   0.205 -0.8987 -0.8790 -1.0505
 1744SOL     OW 5066   1.190   0.675   2.115 -0.3535  0.0077 -0.1133
 1744SOL    HW1 5067   1.281   0.683   2.087 -0.1616 -0.2505  0.4417
 1744SOL    HW2 5068   1.173   0.581   2.119 -0.6515  0.0530 -0.2260
 1745SOL     OW 5069   0.052   3.136   2.074 -0.5003 -0.5481 -0.1596
 1745SOL    HW1 5070   0.061   3.168   2.164  0.2168 -2.8299  0.6544
 1745SOL    HW2 5071   0.121   3.181   2.025  0.8279 -1.2210  1.0470
 1746SOL     OW 5072   3.122   2.786   1.262 -0.0893 -0.2765  0.4873
 1746SOL    HW1 5073   3.151   2.787   1.171 -2.1215  0.4973 -0.2228
 1746SOL    HW2 5074   3.201   2.806   1.313  1.3462 -1.8926 -0.9662
 1747SOL     OW 5075   0.977   3.251   2.123 -0.0970 -0.3430  0.5203
 1747SOL    HW1 5076   1.019   3.206   2.197  0.9022  1.3550  1.0324
 1747SOL    HW2 5077   0.980   3.343   2.146 -0.9287  0.1180 -1.0889
 1748SOL     OW 5078   0.671   3.374   1.434  0.3472 -0.0401 -0.0263
 1748SOL    HW1 5079   0.596   3.395   1.489  0.1906 -0.0690 -0.2319
 1748SOL    HW2 5080   0.726   3.453   1.438 -0.6567  0.7604 -1.5036
 1749SOL     OW 5081   3.741   3.123   3.276 -0.1259 -0.5023  0.1376
 1749SOL    HW1 5082   3.812   3.187   3.270 -0.1493 -0.5734 -1.4453
 1749SOL    HW2 5083   3.758   3.074   3.356  0.0714  1.2600  1.2176
 1750SOL     OW 5084   1.627   3.569   3.072  0.3435  0.9351  0.0225
 1750SOL    HW1 5085   1.606   3.646   3.019 -1.3854  0.1883 -0.4190
 1750SOL    HW2 5086   1.554   3.560   3.133 -0.6051 -1.5608 -1.3449
 1751SOL     OW 5087   3.029   3.323   1.474 -0.1398  0.5165 -0.0836
 1751SOL    HW1 5088   3.107   3.358   1.517  0.6379 -0.8724 -0.3026
 1751SOL    HW2 5089   2.958   3.380   1.504  0.9205  1.7020  0.2565
 1752SOL     OW 5090   1.900   3.904   3.898  0.2179 -0.1193  0.1173
 1752SOL    HW1 5091   1.973   3.847   3.923  1.2394  0.6210 -1.0587
 1752SOL    HW2 5092   1.928   3.944   3.816 -0.3960  2.1797  0.9604
 1753SOL     OW 5093   0.099   3.822   1.849  0.0263 -0.2440  0.1993
 1753SOL    HW1 5094   0.011   3.813   1.813 -0.9825  0.4637  2.2939
 1753SOL    HW2 5095   0.149   3.751   1.809 -1.8287 -1.4261 -0.1471
 1754SOL     OW 5096   1.121   4.030   2.848  0.0031 -0.2721  0.1473
 1754SOL    HW1 5097   1.075   4.102   2.892  1.9833  1.1767 -0.0477
 1754SOL    HW2 5098   1.176   4.074   2.782  0.7248 -2.0733 -0.4799
 1755SOL     OW 5099   1.280   3.694   0.225  0.0634 -0.2120  0.3286
 1755SOL    HW1 5100   1.293   3.685   0.130  0.1073  0.8930  0.2099
 1755SOL    HW2 5101   1.330   3.623   0.263  0.6189 -0.2573 -0.4547
 1756SOL     OW 5102   0.812   1.899   0.388  0.2269 -0.0246 -0.2446
 1756SOL    HW1 5103   0.731   1.858   0.417 -0.4693  1.2370 -0.3552
 1756SOL    HW2 5104   0.870   1.893   0.464  0.1830 -1.2723 -0.2881
 1757SOL     OW 5105   2.145   3.444   1.346  0.0574 -0.1614  0.6099
 1757SOL    HW1 5106   2.202   3.499   1.292  2.0834 -1.2460  1.5385
 1757SOL    HW2 5107   2.074   3.502   1.373  1.7562  1.8412  1.0318
 1758SOL     OW 5108   0.222   3.091   2.585  0.5026 -0.6563  0.3367
 1758SOL    HW1 5109   0.209   3.180   2.551 -1.8461 -0.8735  0.5289
 1758SOL    HW2 5110   0.317   3.081   2.587  0.8232  1.1967 -1.3692
 1759SOL     OW 5111   1.360   1.387   0.899 -0.7121 -0.3533  0.7901
 1759SOL    HW1 5112   1.395   1.464   0.942  2.3035 -1.1897  0.0854
 1759SOL    HW2 5113   1.393   1.313   0.951  0.1302 -1.2657 -0.9659
 1760SOL     OW 5114   0.679   3.798   3.974 -0.1319 -0.3928  0.7902
 1760SOL    HW1 5115   0.610   3.822   3.912 -0.3372 -0.6038  0.9332
 1760SOL    HW2 5116   0.631   3.775   4.054  0.1879  1.3697  1.5488
 1761SOL     OW 5117   0.863   3.594   2.518  0.1579  0.3956  0.2552
 1761SOL    HW1 5118   0.855   3.553   2.604 -0.6517 -2.1319 -0.9326
 1761SOL    HW2 5119   0.781   3.642   2.507 -0.9765 -1.5336 -0.1491
 1762SOL     OW 5120   3.892   2.119   2.824 -0.1189  0.4493  0.3875
 1762SOL    HW1 5121   3.902   2.038   2.773 -0.1335 -1.3092  2.9517
 1762SOL    HW2 5122   3.858   2.183   2.762 -0.1523 -1.5224 -1.7627
 1763SOL     OW 5123   2.633   1.507   2.196  0.0145  0.3876 -0.1889
 1763SOL    HW1 5124   2.651   1.569   2.267 -0.3703 -0.0767  0.3234
 1763SOL    HW2 5125   2.715   1.500   2.149  0.7948 -0.5954  1.2456
 1764SOL     OW 5126   2.346   3.213   0.668  0.1387 -0.6410  0.1539
 1764SOL    HW1 5127   2.316   3.167   0.747  2.1001 -1.4381  0.5078
 1764SOL    HW2 5128   2.424   3.164   0.641 -0.2303 -0.0882 -2.0279
 1765SOL     OW 5129   1.880   1.149   4.027  0.2473  0.0892 -0.2168
 1765SOL    HW1 5130   1.902   1.187   4.112  0.5779  0.9485 -0.7094
 1765SOL    HW2 5131   1.800   1.098   4.043  0.4828 -0.0079  0.6641
 1766SOL     OW 5132   2.373   0.520   2.495  0.2082 -0.2804 -0.2259
 1766SOL    HW1 5133   2.397   0.428   2.506  0.2614 -0.1645  0.6263
 1766SOL    HW2 5134   2.326   0.544   2.575 -1.7959 -0.1789 -1.3638
 1767SOL     OW 5135   1.228   2.612   2.184  0.4763 -0.1238  0.7779
 1767SOL    HW1 5136   1.206   2.531   2.138 -0.1750  1.7386 -2.5024
 1767SOL    HW2 5137   1.144   2.647   2.213  0.4029  0.7075 -0.3572
 1768SOL     OW 5138   0.551   2.380   3.245 -0.0116  0.1943 -0.4396
 1768SOL    HW1 5139   0.545   2.367   3.150 -0.4957  1.3815 -0.5900
 1768SOL    HW2 5140   0.645   2.389   3.261  0.1588 -1.0468 -0.6406
 1769SOL     OW 5141   3.073   1.485   1.856 -0.4326  0.4042  0.6217
 1769SOL    HW1 5142   3.013   1.504   1.784 -0.5926  1.5127  1.0213
 1769SOL    HW2 5143   3.159   1.479   1.815 -0.7883 -1.2269  0.0409
 1770SOL     OW 5144   2.417   1.514   0.517  0.6418 -0.4329  0.3660
 1770SOL    HW1 5145   2.437   1.441   0.575  1.6667 -0.0630  0.5032
 1770SOL    HW2 5146   2.468   1.587   0.553 -1.3010  0.6934  0.9704
 1771SOL     OW 5147   2.711   1.231   1.727 -0.3461 -0.1258 -0.4474
 1771SOL    HW1 5148   2.639   1.203   1.671  0.3437 -1.9263 -0.5098
 1771SOL    HW2 5149   2.691   1.192   1.812 -1.0261  2.0063  0.4212
 1772SOL     OW 5150   0.821   2.020   2.718  0.0554 -0.1444 -0.0749
 1772SOL    HW1 5151   0.869   2.061   2.790  0.4974  0.2952 -0.6176
 1772SOL    HW2 5152   0.792   1.936   2.754  2.1606 -0.9216 -0.0528
 1773SOL     OW 5153   3.881   3.391   1.072  0.3196  0.2730  0.3270
 1773SOL    HW1 5154   3.893   3.296   1.067  1.2333  0.3926 -0.0143
 1773SOL    HW2 5155   3.970   3.426   1.075  0.0087  1.1531 -0.3135
 1774SOL     OW 5156   1.647   2.795   0.733 -0.4066 -0.4366  0.3338
 1774SOL    HW1 5157   1.570   2.741   0.713 -0.5450 -0.0464 -0.2161
 1774SOL    HW2 5158   1.695   2.799   0.650 -0.4589  0.3763  0.3412
 1775SOL     OW 5159   3.159   3.413   1.138  0.4836 -0.6971  0.0654
 1775SOL    HW1 5160   3.118   3.467   1.071  1.3040 -0.7279 -0.4716
 1775SOL    HW2 5161   3.087   3.360   1.173  0.0666 -0.7528 -0.8457
 1776SOL     OW 5162   4.035   3.980   0.236  0.1063 -0.2589 -0.5121
 1776SOL    HW1 5163   4.084   3.947   0.312 -1.0588  0.7063  0.6951
 1776SOL    HW2 5164   3.950   3.936   0.242 -0.0971  0.0485 -1.1076
 1777SOL     OW 5165   3.491   3.631   2.496 -0.2926  0.4375  0.0484
 1777SOL    HW1 5166   3.475   3.718   2.460  0.2097 -0.9225 -3.9540
 1777SOL    HW2 5167   3.571   3.601   2.453  0.3748 -1.5024  2.4262
 1778SOL     OW 5168   2.968   1.584   2.650  0.3695  0.2459 -0.5931
 1778SOL    HW1 5169   2.979   1.642   2.574 -0.0650 -1.1144 -1.7524
 1778SOL    HW2 5170   3.049   1.533   2.654  0.5619  0.5971  0.1306
 1779SOL     OW 5171   2.915   2.331   0.372 -0.2069  0.1422  0.1275
 1779SOL    HW1 5172   2.943   2.413   0.413  1.4744 -0.2108 -0.2537
 1779SOL    HW2 5173   2.829   2.352   0.335 -0.7581  1.1114  1.8235
 1780SOL     OW 5174   2.350   2.870   1.213 -0.2588 -1.0183 -0.0171
 1780SOL    HW1 5175   2.389   2.918   1.286 -0.7550 -1.2951  0.4273
 1780SOL    HW2 5176   2.413   2.801   1.193  0.1735 -0.5610 -0.2679
 1781SOL     OW 5177   0.058   1.940   1.486 -0.3583 -0.1613 -0.3304
 1781SOL    HW1 5178   0.037   1.996   1.412 -1.3525  0.1342  0.1561
 1781SOL    HW2 5179   0.136   1.980   1.525 -0.5753  0.4142 -0.4801
 1782SOL     OW 5180   0.360   0.737   1.438  0.1029 -0.1766  0.3413
 1782SOL    HW1 5181   0.381   0.776   1.354  0.1684 -0.0505  0.4159
 1782SOL    HW2 5182   0.300   0.665   1.417  0.2475 -0.2470  0.1734
 1783SOL     OW 5183   3.975   3.759   1.661  0.9543 -0.0384 -0.0064
 1783SOL    HW1 5184   3.880   3.749   1.674  0.8521  1.5404  0.7896
 1783SOL    HW2 5185   3.984   3.780   1.568  0.2504  1.9858  0.3276
 1784SOL     OW 5186   0.912   0.124   1.966  0.2289 -0.0240  0.7474
 1784SOL    HW1 5187   0.933   0.032   1.952  2.0600  0.5829 -1.0303
 1784SOL    HW2 5188   0.823   0.134   1.933  1.5049 -0.3847 -3.4654
 1785SOL     OW 5189   3.243   0.860   2.743 -0.3402 -0.1435 -0.0238
 1785SOL    HW1 5190   3.161   0.840   2.790 -0.7028  0.5574 -0.3384
 1785SOL    HW2 5191   3.234   0.953   2.719  1.8717  0.9063  2.6374
 1786SOL     OW 5192   3.143   1.593   3.808 -0.0354  0.1230  0.5909
 1786SOL    HW1 5193   3.051   1.608   3.833 -0.4560 -3.6600  1.8196
 1786SOL    HW2 5194   3.138   1.532   3.735  1.5545  0.4825  0.1507
 1787SOL     OW 5195   2.123   2.746   0.347  0.1415 -0.0667  0.2068
 1787SOL    HW1 5196   2.060   2.713   0.282 -1.1151  1.2559  0.6785
 1787SOL    HW2 5197   2.204   2.700   0.327 -1.4776 -3.6497  1.0323
 1788SOL     OW 5198   2.980   3.810   0.554  0.9678 -0.4784  0.3190
 1788SOL    HW1 5199   3.007   3.810   0.645  3.7040 -2.6716 -0.3548
 1788SOL    HW2 5200   3.048   3.859   0.508  0.4557 -0.6960 -0.7146
 1789SOL     OW 5201   3.665   1.584   0.739 -0.2569  0.1130 -0.3586
 1789SOL    HW1 5202   3.680   1.655   0.801  0.5604 -1.0686  0.8273
 1789SOL    HW2 5203   3.576   1.600   0.707 -1.5180 -0.3316  2.6248
 1790SOL     OW 5204   3.867   1.665   4.065 -0.8154  0.0368 -0.1190
 1790SOL    HW1 5205   3.812   1.623   3.998  0.2731 -2.0044  0.2138
 1790SOL    HW2 5206   3.907   1.592   4.113  2.6508  1.3797 -0.7394
 1791SOL     OW 5207   2.430   1.373   2.373 -0.2030  0.0751  0.3495
 1791SOL    HW1 5208   2.464   1.404   2.289 -1.8507 -0.0523 -0.4027
 1791SOL    HW2 5209   2.445   1.278   2.371 -0.9084 -0.0375 -0.1520
 1792SOL     OW 5210   3.843   0.038   1.113 -0.2226 -0.1959  0.0398
 1792SOL    HW1 5211   3.788  -0.039   1.130  0.6564 -1.0727 -1.1666
 1792SOL    HW2 5212   3.905   0.039   1.186 -2.9411  1.9863  2.5390
 1793SOL     OW 5213   1.701   0.008   1.369  0.3252  0.1323 -0.2876
 1793SOL    HW1 5214   1.753   0.066   1.313  2.2695  0.8216  2.0390
 1793SOL    HW2 5215   1.652   0.067   1.426 -1.8103 -0.5418 -1.3511
 1794SOL     OW 5216   3.107   1.938   1.721 -0.1783  0.1962 -0.2656
 1794SOL    HW1 5217   3.141   1.850   1.738 -1.2757 -0.5110 -1.5330
 1794SOL    HW2 5218   3.018   1.937   1.758  0.2571  1.2090  0.8494
 1795SOL     OW 5219   3.440   2.711   3.470  0.1152  0.5266  0.2720
 1795SOL    HW1 5220   3.435   2.687   3.377 -1.4360  2.5566 -0.2383
 1795SOL    HW2 5221   3.467   2.803   3.470 -0.6506  0.7853  1.7985
 1796SOL     OW 5222   2.365   3.788   3.045  0.1312 -0.0402 -0.3533
 1796SOL    HW1 5223   2.458   3.806   3.029  0.0127  0.1701 -0.8585
 1796SOL    HW2 5224   2.322   3.816   2.964 -0.5077  0.9705  0.3108
 1797SOL     OW 5225   3.135   3.215   3.667  0.6598  0.4770 -0.1361
 1797SOL    HW1 5226   3.213   3.259   3.633 -0.5955  0.6304 -3.1887
 1797SOL    HW2 5227   3.062   3.255   3.618 -1.0784 -1.2150  0.9472
 1798SOL     OW 5228   0.039   3.245   3.675  0.2233  0.2290  0.1419
 1798SOL    HW1 5229   0.079   3.186   3.611 -1.6923 -1.5809  0.5056
 1798SOL    HW2 5230   0.005   3.187   3.743 -1.8539  1.7119  0.4378
 1799SOL     OW 5231   3.664   1.143   3.024 -0.4889  0.0950  0.4075
 1799SOL    HW1 5232   3.746   1.094   3.023 -0.5201 -0.0514 -1.8267
 1799SOL    HW2 5233   3.633   1.138   3.114  0.3774 -2.5072  0.6206
 1800SOL     OW 5234   2.501   1.092   2.955  0.0634  0.2388  0.1471
 1800SOL    HW1 5235   2.489   0.997   2.956 -0.3161  0.1791 -2.6405
 1800SOL    HW2 5236   2.591   1.105   2.986  0.4026 -1.0844 -0.2184
 1801SOL     OW 5237   0.872   3.418   1.162 -0.2911 -0.7329 -0.2561
 1801SOL    HW1 5238   0.821   3.363   1.222 -0.7175 -1.1798 -1.0100
 1801SOL    HW2 5239   0.886   3.363   1.085 -1.3236  0.4394 -1.3193
 1802SOL     OW 5240   2.846   3.177   2.373 -0.5940  0.1421  0.5903
 1802SOL    HW1 5241   2.758   3.176   2.411 -0.6051  0.8915  0.5860
 1802SOL    HW2 5242   2.832   3.191   2.279 -0.4120  1.7666  0.7874
 1803SOL     OW 5243   0.801   0.827   1.975 -0.2233  0.5540  0.1908
 1803SOL    HW1 5244   0.879   0.790   1.935 -0.8748  0.9043 -1.4701
 1803SOL    HW2 5245   0.830   0.856   2.062  0.8407 -1.6620  0.6451
 1804SOL     OW 5246   1.935   3.261   2.879 -0.3930  0.5290  0.3385
 1804SOL    HW1 5247   1.863   3.227   2.933  1.3100 -0.8834  1.8392
 1804SOL    HW2 5248   1.940   3.354   2.901 -2.7205  1.0631 -1.0121
 1805SOL     OW 5249   0.045   1.680   2.010  0.2312  0.0930 -0.1040
 1805SOL    HW1 5250   0.129   1.633   2.012  1.1494  1.6415 -0.2365
 1805SOL    HW2 5251   0.016   1.674   1.919  0.5805  0.1771 -0.2239
 1806SOL     OW 5252   0.695   3.178   3.339  0.2829 -0.5077 -1.0246
 1806SOL    HW1 5253   0.786   3.202   3.356  0.2341 -1.5667  1.1680
 1806SOL    HW2 5254   0.668   3.234   3.267  1.9044  1.6708 -0.0605
 1807SOL     OW 5255   2.798   1.922   2.490  0.0627 -0.2412 -0.9010
 1807SOL    HW1 5256   2.800   1.921   2.586  2.9662 -1.8482 -0.8740
 1807SOL    HW2 5257   2.826   2.010   2.467  0.2839 -0.1392 -0.2644
 1808SOL     OW 5258   1.337   0.145   1.733  0.0824  0.5864  0.1451
 1808SOL    HW1 5259   1.368   0.219   1.680  1.1470  0.0037 -0.0883
 1808SOL    HW2 5260   1.243   0.143   1.719  0.2548  0.8492 -1.2335
 1809SOL     OW 5261   1.756   2.959   3.765 -0.5533 -0.2185  0.2209
 1809SOL    HW1 5262   1.808   3.008   3.828 -0.0926  0.7978 -0.9106
 1809SOL    HW2 5263   1.820   2.914   3.711 -0.7803  1.1912 -1.3081
 1810SOL     OW 5264   3.091   2.926   3.683  0.6139 -0.4798 -0.2923
 1810SOL    HW1 5265   3.164   2.934   3.622  1.8401 -0.3992  1.1153
 1810SOL    HW2 5266   3.028   2.992   3.654  1.2198 -0.3586 -1.3760
 1811SOL     OW 5267   1.163   1.953   0.345 -0.3132 -0.1140 -0.3292
 1811SOL    HW1 5268   1.185   1.863   0.323  1.9598  0.0263  0.9548
 1811SOL    HW2 5269   1.123   1.948   0.431 -0.5415  0.0599 -0.4251
 1812SOL     OW 5270   2.523   1.678   4.042  0.1196 -0.1715  0.2512
 1812SOL    HW1 5271   2.433   1.701   4.019  0.3108 -0.0938 -0.4366
 1812SOL    HW2 5272   2.520   1.584   4.057  0.0016 -0.2419 -0.1880
 1813SOL     OW 5273   1.571   0.312   3.464  0.4908  0.3003  0.0818
 1813SOL    HW1 5274   1.515   0.319   3.542 -1.7015  1.3563 -1.4728
 1813SOL    HW2 5275   1.644   0.372   3.481  0.9769 -0.7596  1.9814
 1814SOL     OW 5276   3.428   1.925   0.267  0.0651  0.8358  0.3052
 1814SOL    HW1 5277   3.439   1.851   0.207 -1.3057 -0.1266  1.1715
 1814SOL    HW2 5278   3.336   1.950   0.258  0.3128  1.8989  0.6392
 1815SOL     OW 5279   3.078   3.835   3.525 -0.0064 -0.2910  0.7105
 1815SOL    HW1 5280   3.060   3.823   3.618 -0.5023  0.4919  0.7213
 1815SOL    HW2 5281   3.039   3.920   3.503  0.0983 -0.4680 -0.2122
 1816SOL     OW 5282   3.235   0.299   4.043 -0.0686  0.4794  0.3123
 1816SOL    HW1 5283   3.294   0.242   4.092 -0.4962  0.3995  0.7352
 1816SOL    HW2 5284   3.244   0.270   3.952  0.8265  0.7161  0.3106
 1817SOL     OW 5285   1.997   2.451   2.862 -0.3252 -0.4064  0.2163
 1817SOL    HW1 5286   2.083   2.416   2.839  0.0135 -0.1085  0.9864
 1817SOL    HW2 5287   1.935   2.388   2.827  0.2586 -1.4173  0.9554
 1818SOL     OW 5288   3.274   0.478   3.203  0.4634  0.3792  0.0850
 1818SOL    HW1 5289   3.271   0.516   3.291 -0.0329  1.9479 -0.5774
 1818SOL    HW2 5290   3.195   0.426   3.196 -0.4129  1.6887 -0.0313
 1819SOL     OW 5291   1.193   3.903   3.098 -0.0996 -0.3554 -0.2956
 1819SOL    HW1 5292   1.172   3.972   3.035  2.0502  0.7971  0.1635
 1819SOL    HW2 5293   1.151   3.930   3.179  1.2427  0.8189  0.0551
 1820SOL     OW 5294   2.410   1.533   0.945 -0.7428 -1.1115 -0.6844
 1820SOL    HW1 5295   2.372   1.455   0.986 -0.8771 -0.6809  0.0194
 1820SOL    HW2 5296   2.467   1.570   1.011 -1.3453 -0.1266 -0.6922
 1821SOL     OW 5297   3.293   3.139   2.235  0.2606 -0.4486  0.1415
 1821SOL    HW1 5298   3.328   3.225   2.256  0.9136 -0.2134 -1.7351
 1821SOL    HW2 5299   3.370   3.087   2.211 -0.2431 -1.2128  0.1506
 1822SOL     OW 5300   2.594   1.680   0.640  0.1422 -0.3625  0.2097
 1822SOL    HW1 5301   2.652   1.753   0.618 -0.2729 -0.6501 -1.9912
 1822SOL    HW2 5302   2.653   1.614   0.676  1.0161 -0.1885 -0.8597
 1823SOL     OW 5303   3.109   0.604   1.129  0.0144 -0.3170 -0.2340
 1823SOL    HW1 5304   3.115   0.549   1.051  0.5069 -0.2694 -0.2352
 1823SOL    HW2 5305   3.020   0.589   1.163 -0.4552  0.2185 -1.1976
 1824SOL     OW 5306   2.147   0.291   3.087 -0.2725 -0.4678  0.6491
 1824SOL    HW1 5307   2.062   0.334   3.092 -0.5417 -0.9802  0.5312
 1824SOL    HW2 5308   2.127   0.201   3.062  0.1965 -0.9456  1.9373
 1825SOL     OW 5309   0.778   3.914   1.249  0.1963  0.7254  0.0998
 1825SOL    HW1 5310   0.696   3.864   1.256  1.4885 -1.5920 -0.3325
 1825SOL    HW2 5311   0.772   3.978   1.320 -1.1306 -0.7267  1.3938
 1826SOL     OW 5312   3.292   3.946   1.901  0.4018  0.7174  0.4468
 1826SOL    HW1 5313   3.349   4.021   1.888 -0.0222  0.7258 -1.8139
 1826SOL    HW2 5314   3.305   3.921   1.992  3.2391  1.3246  0.2966
 1827SOL     OW 5315   3.415   3.855   3.081 -0.1275 -0.0187  0.2370
 1827SOL    HW1 5316   3.433   3.946   3.056 -3.6728  0.7424 -0.1512
 1827SOL    HW2 5317   3.489   3.830   3.136  1.3937  2.7995 -0.3196
 1828SOL     OW 5318   0.750   3.088   2.171  0.2305 -0.4620  0.1054
 1828SOL    HW1 5319   0.731   3.126   2.257 -2.4751  0.2996 -0.7511
 1828SOL    HW2 5320   0.821   3.142   2.137 -0.4043  0.8862  0.8264
 1829SOL     OW 5321   0.842   3.254   0.240  0.2978 -0.3451  0.2534
 1829SOL    HW1 5322   0.820   3.215   0.325  1.0454  0.1427  0.6818
 1829SOL    HW2 5323   0.775   3.221   0.180 -0.4979 -0.3447  1.1245
 1830SOL     OW 5324   0.083   0.648   1.938  0.1108 -0.6526 -0.3792
 1830SOL    HW1 5325   0.171   0.684   1.947 -0.0807 -0.1343 -0.5887
 1830SOL    HW2 5326   0.082   0.572   1.996 -0.4986  1.4759  2.6063
 1831SOL     OW 5327   1.628   1.558   2.241 -0.0789 -0.3108  0.0420
 1831SOL    HW1 5328   1.566   1.490   2.269 -0.1734 -0.6579 -0.9594
 1831SOL    HW2 5329   1.696   1.510   2.194 -0.8875  0.3936 -1.9511
 1832SOL     OW 5330   3.883   2.441   2.957 -0.4670 -0.3129  0.1504
 1832SOL    HW1 5331   3.834   2.359   2.968  0.6581 -1.2580 -1.4920
 1832SOL    HW2 5332   3.945   2.422   2.887 -2.4523  3.0022 -2.7908
 1833SOL     OW 5333   3.419   3.511   1.008  0.3329  0.0676 -0.1373
 1833SOL    HW1 5334   3.446   3.548   1.093 -0.6485 -1.0949  0.7067
 1833SOL    HW2 5335   3.333   3.474   1.024  0.8255 -1.6348 -1.2228
 1834SOL     OW 5336   2.516   0.183   3.334 -0.2292  0.0398  0.1789
 1834SOL    HW1 5337   2.421   0.187   3.347 -0.3725  1.0392 -0.9866
 1834SOL    HW2 5338   2.531   0.095   3.300 -1.0746  0.5912 -1.7835
 1835SOL     OW 5339   3.518   0.745   0.416  0.1376  0.1481  0.2370
 1835SOL    HW1 5340   3.607   0.712   0.402  0.3354  0.0745  1.5492
 1835SOL    HW2 5341   3.491   0.706   0.499 -1.1297  0.1664 -0.1497
 1836SOL     OW 5342   2.737   3.409   2.949  0.4606 -0.6085  0.8742
 1836SOL    HW1 5343   2.647   3.441   2.955  0.2898 -1.3011  3.0208
 1836SOL    HW2 5344   2.791   3.488   2.961  0.1755 -0.1671 -0.5946
 1837SOL     OW 5345   0.422   3.254   3.489 -0.3039  0.1716 -0.0202
 1837SOL    HW1 5346   0.493   3.193   3.469 -0.9612 -0.3885 -0.7015
 1837SOL    HW2 5347   0.421   3.259   3.584 -0.2840 -0.9522  0.0571
 1838SOL     OW 5348   3.209   1.399   4.052  0.3198  0.4403  0.1110
 1838SOL    HW1 5349   3.166   1.463   3.994 -0.6240 -0.2459  0.0280
 1838SOL    HW2 5350   3.300   1.427   4.055  0.2210  0.9682 -1.0626
 1839SOL     OW 5351   1.890   0.536   3.782  0.1691  0.0936  0.0873
 1839SOL    HW1 5352   1.857   0.574   3.864 -1.0909  0.4157 -0.5423
 1839SOL    HW2 5353   1.833   0.461   3.765  2.8316 -2.4404  1.4852
 1840SOL     OW 5354   0.780   2.579   2.956  0.2315  0.4649  0.2666
 1840SOL    HW1 5355   0.785   2.485   2.972 -0.8912  0.5368  1.0998
 1840SOL    HW2 5356   0.743   2.616   3.036  0.2583  1.5755 -0.2073
 1841SOL     OW 5357   0.599   1.578   3.699  0.3648 -0.5215 -0.0208
 1841SOL    HW1 5358   0.522   1.632   3.720  0.9882  1.3821 -2.2520
 1841SOL    HW2 5359   0.673   1.638   3.706  1.7108 -2.2405  1.7358
 1842SOL     OW 5360   3.593   3.342   1.356  0.1260  0.3203  0.4564
 1842SOL    HW1 5361   3.499   3.357   1.366 -0.1017 -0.0122 -0.9461
 1842SOL    HW2 5362   3.626   3.422   1.315  0.0564 -0.3823 -1.0328
 1843SOL     OW 5363   3.037   2.220   3.591  0.1980  0.5657 -0.4523
 1843SOL    HW1 5364   3.082   2.139   3.567  0.7736  0.1957  1.7151
 1843SOL    HW2 5365   2.944   2.199   3.585  0.2464 -1.3745  3.1884
 1844SOL     OW 5366   1.932   0.490   0.747 -0.0885  0.0717  0.1593
 1844SOL    HW1 5367   1.951   0.425   0.814  4.0862  0.7240 -0.1252
 1844SOL    HW2 5368   1.932   0.441   0.664  1.7762  0.1473  0.0701
 1845SOL     OW 5369   1.664   1.855   3.135  0.5106 -0.3257  0.1381
 1845SOL    HW1 5370   1.632   1.898   3.214  1.1590 -0.4818  0.4967
 1845SOL    HW2 5371   1.727   1.790   3.167  0.0199 -1.0962 -0.4406
 1846SOL     OW 5372   3.756   0.508   2.741  0.2828 -0.4186  0.0301
 1846SOL    HW1 5373   3.758   0.420   2.780 -0.3771 -1.0839 -1.3704
 1846SOL    HW2 5374   3.832   0.510   2.683  0.2814 -0.0697  0.0383
 1847SOL     OW 5375   0.465   0.910   0.461  0.2522  0.2565  0.0727
 1847SOL    HW1 5376   0.545   0.960   0.480  2.2559 -2.9548  0.9956
 1847SOL    HW2 5377   0.460   0.847   0.533 -2.5065 -0.4401 -0.6296
 1848SOL     OW 5378   2.254   2.573   3.641 -0.4034  0.3109  0.0931
 1848SOL    HW1 5379   2.269   2.541   3.552  1.8555 -0.0576  0.5488
 1848SOL    HW2 5380   2.268   2.668   3.635 -1.4987  0.4655 -0.1662
 1849SOL     OW 5381   0.048   2.681   0.347  0.1753  0.1373 -0.0362
 1849SOL    HW1 5382  -0.046   2.690   0.363  0.2987 -0.1901  0.6632
 1849SOL    HW2 5383   0.056   2.601   0.295 -0.1921  1.7320 -2.7271
 1850SOL     OW 5384   3.259   0.825   1.780  0.2591 -0.0793  0.0684
 1850SOL    HW1 5385   3.304   0.859   1.857  1.3714  0.0278 -0.5965
 1850SOL    HW2 5386   3.318   0.846   1.707 -0.2229 -1.1660 -0.6659
 1851SOL     OW 5387   3.044   1.327   0.220 -0.1672  0.5403  0.1538
 1851SOL    HW1 5388   3.087   1.319   0.135  1.6045 -0.4822  1.0955
 1851SOL    HW2 5389   3.017   1.419   0.224  0.8903  0.9266 -0.9763
 1852SOL     OW 5390   1.546   0.089   3.291  0.0124 -0.3396 -0.4070
 1852SOL    HW1 5391   1.574   0.120   3.205 -0.8616  0.1656 -0.5278
 1852SOL    HW2 5392   1.560   0.164   3.349 -0.2017 -0.3861 -0.2930
 1853SOL     OW 5393   0.079   1.511   0.750 -0.0742  0.0428  0.2998
 1853SOL    HW1 5394   0.045   1.592   0.788 -1.9544 -1.1455  1.3512
 1853SOL    HW2 5395   0.122   1.538   0.669 -1.3156  2.0033  0.2245
 1854SOL     OW 5396   1.900   3.071   1.913 -0.1193 -0.6863  0.4801
 1854SOL    HW1 5397   1.935   3.103   1.996  0.3304 -1.8145  0.7438
 1854SOL    HW2 5398   1.825   3.127   1.895 -0.0705 -0.2666  1.5215
 1855SOL     OW 5399   1.249   2.168   1.097  0.0906 -0.4112 -0.2384
 1855SOL    HW1 5400   1.313   2.205   1.036  0.4664  1.5228  1.2473
 1855SOL    HW2 5401   1.300   2.141   1.173 -0.6834 -0.1793  0.3828
 1856SOL     OW 5402   3.478   1.437   3.988 -0.2341 -0.5288  0.2458
 1856SOL    HW1 5403   3.494   1.424   4.081  0.3608 -2.7298 -0.1403
 1856SOL    HW2 5404   3.532   1.513   3.964  0.3331 -0.5149  1.5054
 1857SOL     OW 5405   2.679   0.165   1.498 -0.3520  0.2456  0.1609
 1857SOL    HW1 5406   2.771   0.147   1.518  0.2383  1.2597 -1.4280
 1857SOL    HW2 5407   2.683   0.236   1.433 -2.2206 -0.4406 -0.7474
 1858SOL     OW 5408   2.047   3.646   3.949  0.1147 -0.2150 -0.3750
 1858SOL    HW1 5409   2.020   3.593   3.874 -1.4570 -0.5673  0.3872
 1858SOL    HW2 5410   2.063   3.584   4.019 -0.7068  0.2113  0.2220
 1859SOL     OW 5411   3.061   3.526   0.011  0.0215  0.2845 -0.0972
 1859SOL    HW1 5412   3.124   3.493   0.074  0.0151 -0.5521 -0.5206
 1859SOL    HW2 5413   3.045   3.617   0.038 -0.2785 -0.1764  1.3621
 1860SOL     OW 5414   0.354   3.465   0.721  0.1467  0.3308 -0.2267
 1860SOL    HW1 5415   0.403   3.386   0.742 -0.0015  0.6029  1.2584
 1860SOL    HW2 5416   0.263   3.436   0.714  0.2078  0.2252 -0.6168
 1861SOL     OW 5417   3.886   2.159   1.353  0.8940  0.5318  0.0561
 1861SOL    HW1 5418   3.837   2.125   1.428 -0.3629 -1.8192 -1.7143
 1861SOL    HW2 5419   3.822   2.213   1.305  0.7262 -0.4750 -0.9016
 1862SOL     OW 5420   0.867   0.799   1.224  0.1053  0.1594 -0.2002
 1862SOL    HW1 5421   0.789   0.788   1.169  0.6986  0.9039 -1.2146
 1862SOL    HW2 5422   0.882   0.712   1.261 -1.8304  0.2373  0.9028
 1863SOL     OW 5423   1.686   0.652   1.912  0.2591  0.0648 -0.3366
 1863SOL    HW1 5424   1.716   0.718   1.974  1.8444 -1.3393  0.4949
 1863SOL    HW2 5425   1.757   0.587   1.911 -0.8524 -1.1856 -1.7453
 1864SOL     OW 5426   2.048   1.714   2.742  0.5047 -0.4805 -0.4501
 1864SOL    HW1 5427   2.064   1.781   2.808  0.3273 -0.3544 -0.5334
 1864SOL    HW2 5428   1.955   1.722   2.722  0.4073 -0.9820 -0.2082
 1865SOL     OW 5429   2.542   1.865   1.385  0.1097  0.0763  0.4623
 1865SOL    HW1 5430   2.487   1.791   1.357 -2.3372  1.7334  0.5709
 1865SOL    HW2 5431   2.590   1.889   1.306 -0.7415 -0.2739 -0.1886
 1866SOL     OW 5432   0.256   1.026   3.125 -0.0607  0.3770 -0.1654
 1866SOL    HW1 5433   0.284   1.063   3.209 -1.7404  1.7682 -0.1627
 1866SOL    HW2 5434   0.220   1.101   3.077 -1.3267 -0.8163 -1.1671
 1867SOL     OW 5435   4.059   1.047   1.795 -0.5021  0.7455 -0.0964
 1867SOL    HW1 5436   4.077   1.014   1.883 -1.2131 -1.5568 -0.7528
 1867SOL    HW2 5437   4.132   1.016   1.742 -1.5045 -0.4068 -0.8605
 1868SOL     OW 5438   1.816   0.847   2.061 -0.3619  0.0232  0.3241
 1868SOL    HW1 5439   1.888   0.843   1.997 -0.7525 -2.8765 -0.0664
 1868SOL    HW2 5440   1.860   0.840   2.146  0.1247  3.5059  0.5388
 1869SOL     OW 5441   2.836   1.755   1.037 -0.1532 -0.3171  0.1873
 1869SOL    HW1 5442   2.813   1.738   1.128 -1.7440 -1.1161 -0.3344
 1869SOL    HW2 5443   2.793   1.838   1.017  1.9490  0.9770  0.7353
 1870SOL     OW 5444   2.190   2.216   2.667  0.5947 -0.6092  0.0475
 1870SOL    HW1 5445   2.233   2.153   2.724 -0.0128  0.0847  1.3131
 1870SOL    HW2 5446   2.217   2.301   2.700 -2.5284 -0.0889  1.6526
 1871SOL     OW 5447   1.941   2.005   0.323 -0.3619 -0.2010  0.4503
 1871SOL    HW1 5448   1.852   2.030   0.299 -0.4920 -1.4321 -0.4754
 1871SOL    HW2 5449   1.959   1.928   0.269  1.1928 -0.0915  0.7685
 1872SOL     OW 5450   1.302   3.472   3.469  0.3252 -0.2662  0.0046
 1872SOL    HW1 5451   1.384   3.440   3.507 -0.3983 -0.0401  1.8626
 1872SOL    HW2 5452   1.242   3.398   3.477  0.5360 -0.7299 -2.1560
 1873SOL     OW 5453   3.484   3.222   3.357 -0.4518  0.3291  0.1977
 1873SOL    HW1 5454   3.433   3.287   3.310 -0.2257  2.0722  2.1800
 1873SOL    HW2 5455   3.575   3.239   3.330 -0.5534 -0.3417 -0.5876
 1874SOL     OW 5456   2.119   1.720   0.573 -0.4781  0.3602  0.3046
 1874SOL    HW1 5457   2.133   1.677   0.657  0.0743 -0.5563 -0.2461
 1874SOL    HW2 5458   2.116   1.814   0.594  1.8780  0.3172  1.0786
 1875SOL     OW 5459   1.722   1.683   1.043 -0.2304  0.1016  0.3015
 1875SOL    HW1 5460   1.685   1.747   0.982 -0.7142 -1.0441 -0.6364
 1875SOL    HW2 5461   1.807   1.661   1.006  0.0777  0.4221  0.8003
 1876SOL     OW 5462   1.890   0.477   1.950  0.1088  0.3124 -0.2410
 1876SOL    HW1 5463   1.844   0.411   2.001  0.5496  0.2455  0.0757
 1876SOL    HW2 5464   1.963   0.431   1.910  0.5516  0.6520  0.1665
 1877SOL     OW 5465   3.761   3.540   2.379 -0.0444  0.7853 -0.7170
 1877SOL    HW1 5466   3.839   3.579   2.339 -0.4650  1.8390 -0.5570
 1877SOL    HW2 5467   3.751   3.456   2.336 -0.8974  2.1398 -3.4144
 1878SOL     OW 5468   3.646   3.411   2.018 -0.1733  0.6220 -0.3691
 1878SOL    HW1 5469   3.722   3.433   1.964  2.0986 -1.1846  1.8548
 1878SOL    HW2 5470   3.683   3.375   2.098 -3.4279 -1.0831  0.5467
 1879SOL     OW 5471   3.294   0.678   0.232 -0.2977 -0.5755 -0.4078
 1879SOL    HW1 5472   3.215   0.719   0.268  1.0825  2.6068 -0.6700
 1879SOL    HW2 5473   3.347   0.657   0.308  0.2302  0.9335 -0.3360
 1880SOL     OW 5474   1.098   1.900   2.713  0.0798  0.1390  0.4890
 1880SOL    HW1 5475   1.088   1.990   2.682 -0.4122 -0.2278 -0.4758
 1880SOL    HW2 5476   1.147   1.856   2.644 -0.5863 -0.5765  0.4502
 1881SOL     OW 5477   1.174   2.684   0.674 -0.2907  0.0270  0.2148
 1881SOL    HW1 5478   1.171   2.607   0.616  1.4797 -1.0604  1.4816
 1881SOL    HW2 5479   1.083   2.695   0.702 -0.6865 -1.2512 -0.4535
 1882SOL     OW 5480   3.353   1.599   2.029  0.2810 -0.3834 -0.1817
 1882SOL    HW1 5481   3.412   1.569   1.959  1.0431 -2.1654  1.1400
 1882SOL    HW2 5482   3.311   1.677   1.993  2.9623  0.6166 -1.4453
 1883SOL     OW 5483   3.775   1.569   1.604  0.1581 -0.0893 -0.0804
 1883SOL    HW1 5484   3.715   1.540   1.535 -1.0510 -0.6845  1.1540
 1883SOL    HW2 5485   3.803   1.656   1.577 -0.8082 -0.0405 -0.9988
 1884SOL     OW 5486   0.229   4.037   1.979 -0.1745  0.3350  0.2829
 1884SOL    HW1 5487   0.200   4.035   2.070 -0.4053  0.6327  0.2186
 1884SOL    HW2 5488   0.183   3.963   1.937  0.9299 -0.6101  0.6923
 1885SOL     OW 5489   2.224   2.701   2.143 -0.2561 -0.4484 -0.2033
 1885SOL    HW1 5490   2.172   2.771   2.103 -0.6670 -0.2616  0.6320
 1885SOL    HW2 5491   2.183   2.686   2.228  1.0075 -0.3634  0.4426
 1886SOL     OW 5492   3.468   1.773   0.983 -0.1104 -0.0937  0.2800
 1886SOL    HW1 5493   3.558   1.761   0.953 -0.2786 -0.9422  0.0744
 1886SOL    HW2 5494   3.476   1.790   1.077  0.3277  1.0574  0.0497
 1887SOL     OW 5495   2.960   2.498   3.535 -0.4628  0.0806  0.4287
 1887SOL    HW1 5496   3.025   2.512   3.466 -1.9089 -0.1164 -1.0369
 1887SOL    HW2 5497   2.982   2.412   3.571 -0.2429 -0.2427 -0.4375
 1888SOL     OW 5498   3.026   0.772   2.234  0.1231 -0.2516  1.0507
 1888SOL    HW1 5499   3.023   0.713   2.159  0.5569 -0.2103  0.9998
 1888SOL    HW2 5500   2.949   0.748   2.286  0.5848 -1.2356  1.3045
 1889SOL     OW 5501   0.266   0.369   1.735 -0.0902  0.1462 -0.1535
 1889SOL    HW1 5502   0.327   0.434   1.700 -0.8083  1.9843  1.8256
 1889SOL    HW2 5503   0.316   0.288   1.735  1.4460  1.0370 -1.0373
 1890SOL     OW 5504   1.348   0.098   0.143  0.0078 -0.1410  0.1119
 1890SOL    HW1 5505   1.277   0.157   0.167 -1.2466 -1.6774  0.3004
 1890SOL    HW2 5506   1.306   0.013   0.131  2.0410 -1.4642  1.8176
 1891SOL     OW 5507   2.516   3.569   0.016  0.3123 -0.9970 -0.1880
 1891SOL    HW1 5508   2.499   3.489   0.067 -0.4059  0.7530  2.5476
 1891SOL    HW2 5509   2.610   3.566  -0.002  0.5556 -1.7702  1.1245
 1892SOL     OW 5510   1.765   1.040   0.272 -0.0338  0.2446  0.3145
 1892SOL    HW1 5511   1.746   0.964   0.328  2.8218 -1.0310 -0.2774
 1892SOL    HW2 5512   1.757   1.115   0.330  2.8379 -1.0199  2.5959
 1893SOL     OW 5513   0.802   3.800   1.614 -0.0182 -0.1399  0.0150
 1893SOL    HW1 5514   0.742   3.822   1.685 -3.5749  1.9745 -3.3011
 1893SOL    HW2 5515   0.829   3.884   1.577  1.4697 -1.1613 -1.3781
 1894SOL     OW 5516   3.126   1.775   2.017 -0.3434 -0.2689 -0.0661
 1894SOL    HW1 5517   3.064   1.845   2.036  1.1317  0.6572  1.7557
 1894SOL    HW2 5518   3.073   1.696   2.015 -1.6509  0.5358  0.9797
 1895SOL     OW 5519   3.158   2.368   2.521  0.0463  0.0679  0.2888
 1895SOL    HW1 5520   3.253   2.371   2.509 -0.1019 -1.6173 -2.1557
 1895SOL    HW2 5521   3.127   2.453   2.490  0.6401 -0.1671 -1.0218
 1896SOL     OW 5522   2.282   1.156   3.287  0.0255 -0.5912 -0.1071
 1896SOL    HW1 5523   2.310   1.070   3.256  2.1221 -0.2316  0.6285
 1896SOL    HW2 5524   2.292   1.213   3.211  1.4517 -0.4564  0.1614
 1897SOL     OW 5525   3.736   0.017   2.222  0.6558  0.3754 -0.5636
 1897SOL    HW1 5526   3.654   0.048   2.183 -0.1730 -0.4095  0.4997
 1897SOL    HW2 5527   3.778  -0.034   2.153  0.4616  1.1537 -1.2478
 1898SOL     OW 5528   1.033   3.517   0.439 -0.1324  0.2892 -0.2147
 1898SOL    HW1 5529   0.975   3.513   0.515  1.7641  1.7429  1.4150
 1898SOL    HW2 5530   1.044   3.425   0.412 -2.7283 -0.0697 -0.3255
 1899SOL     OW 5531   2.037   1.884   3.768 -0.5918  0.4879 -0.2734
 1899SOL    HW1 5532   2.012   1.974   3.747 -0.6011  0.6534  0.4230
 1899SOL    HW2 5533   2.086   1.891   3.850  0.3200 -0.0233 -0.7541
 1900SOL     OW 5534   2.163   1.527   3.963  0.7533 -0.0361 -0.2754
 1900SOL    HW1 5535   2.105   1.602   3.967  1.0694  0.1827  0.5530
 1900SOL    HW2 5536   2.129   1.472   3.893 -0.0932  0.3771 -0.1876
 1901SOL     OW 5537   2.077   1.841   2.969  0.5004 -0.0996  0.2775
 1901SOL    HW1 5538   2.129   1.920   2.986 -1.2990  0.5479  3.8354
 1901SOL    HW2 5539   1.997   1.854   3.021 -0.8695 -3.3058 -0.8052
 1902SOL     OW 5540   1.020   3.824   1.106 -0.3928 -0.3014  0.6305
 1902SOL    HW1 5541   0.979   3.758   1.050 -0.0639  1.1244 -1.3918
 1902SOL    HW2 5542   0.947   3.875   1.141 -0.5436  0.9778 -1.3734
 1903SOL     OW 5543   1.657   2.346   2.787 -0.3247 -0.5280 -0.2398
 1903SOL    HW1 5544   1.674   2.438   2.766 -0.2603 -0.4245  0.2613
 1903SOL    HW2 5545   1.664   2.341   2.882  1.2924 -1.3674 -0.3683
 1904SOL     OW 5546   0.365   1.954   1.952 -0.0828 -0.6760 -0.1442
 1904SOL    HW1 5547   0.442   1.989   1.997  0.7035 -1.9206 -0.4849
 1904SOL    HW2 5548   0.324   2.031   1.911  0.1702  0.2111  1.1959
 1905SOL     OW 5549   1.351   3.679   1.782  0.3390 -0.7729 -0.5215
 1905SOL    HW1 5550   1.367   3.767   1.747 -0.0279  0.1976  1.6289
 1905SOL    HW2 5551   1.416   3.668   1.851 -1.6507 -0.8299  1.4640
 1906SOL     OW 5552   2.519   2.300   2.106  0.4649  0.5438 -0.2777
 1906SOL    HW1 5553   2.540   2.233   2.041 -0.0470 -0.1131  0.2214
 1906SOL    HW2 5554   2.595   2.303   2.163 -0.2182 -0.9114  0.7649
 1907SOL     OW 5555   0.151   3.353   3.044 -0.5549  0.3440 -0.7243
 1907SOL    HW1 5556   0.211   3.278   3.047 -0.2393  0.6137 -0.1637
 1907SOL    HW2 5557   0.200   3.421   2.998 -0.2360  0.7251  0.1571
 1908SOL     OW 5558   2.175   1.609   1.792 -0.1650 -0.0346 -0.3083
 1908SOL    HW1 5559   2.099   1.559   1.822 -0.7423  1.4543  0.8033
 1908SOL    HW2 5560   2.138   1.688   1.753  0.8065  0.7885  0.3979
 1909SOL     OW 5561   2.634   3.134   4.054 -0.1986 -0.0940  0.0738
 1909SOL    HW1 5562   2.651   3.164   3.965 -2.5108  0.2567 -0.3251
 1909SOL    HW2 5563   2.657   3.041   4.053  1.5719  0.3193 -0.3184
 1910SOL     OW 5564   3.565   1.726   0.082  0.4275  0.0892 -0.0533
 1910SOL    HW1 5565   3.607   1.697   0.001 -1.0634  1.9056 -1.5212
 1910SOL    HW2 5566   3.524   1.647   0.117  1.7516 -0.8925 -0.6345
 1911SOL     OW 5567   3.312   0.622   0.547  0.8394  0.2805  0.0414
 1911SOL    HW1 5568   3.245   0.575   0.498  1.5376 -2.0417  1.1921
 1911SOL    HW2 5569   3.278   0.711   0.554 -0.8777 -0.1764 -1.6204
 1912SOL     OW 5570   0.679   3.678   0.709 -0.0726 -0.0219 -0.6412
 1912SOL    HW1 5571   0.602   3.634   0.745  0.7819  0.3630  1.8290
 1912SOL    HW2 5572   0.670   3.769   0.737  1.2058  0.0432 -0.3707
 1913SOL     OW 5573   0.037   2.080   3.387 -0.0922 -0.4060 -0.1077
 1913SOL    HW1 5574   0.041   2.152   3.325 -0.4266 -2.0143 -2.1120
 1913SOL    HW2 5575   0.074   2.115   3.468 -1.7275  2.4728 -0.4916
 1914SOL     OW 5576   2.564   1.014   1.567 -0.0448  0.3163 -0.6709
 1914SOL    HW1 5577   2.630   0.991   1.633 -0.1626  0.1418 -0.6144
 1914SOL    HW2 5578   2.609   1.076   1.510  0.6693 -0.9707 -1.5395
 1915SOL     OW 5579   3.486   1.191   2.838  0.5389  0.0979 -0.1868
 1915SOL    HW1 5580   3.509   1.280   2.811  0.0982  0.4015  0.4346
 1915SOL    HW2 5581   3.537   1.175   2.917 -0.7387  0.4879  0.7572
 1916SOL     OW 5582   0.144   1.833   3.654  0.0829  0.0335  0.0670
 1916SOL    HW1 5583   0.153   1.923   3.621  1.6693 -0.2538 -0.3769
 1916SOL    HW2 5584   0.066   1.799   3.610 -1.3280  1.5844  1.2371
 1917SOL     OW 5585   3.165   2.004   0.685 -0.5109  0.5815 -0.6671
 1917SOL    HW1 5586   3.097   1.958   0.735  0.8462  2.0747  2.8847
 1917SOL    HW2 5587   3.119   2.044   0.612 -2.5112 -2.4776 -1.2504
 1918SOL     OW 5588   2.444   2.791   2.284 -0.7649  0.2217  0.1656
 1918SOL    HW1 5589   2.488   2.850   2.222 -2.3901  1.5726  0.2372
 1918SOL    HW2 5590   2.373   2.752   2.233  0.5330 -2.0724 -0.0007
 1919SOL     OW 5591   3.973   0.564   1.264 -0.8332 -0.2535  0.2295
 1919SOL    HW1 5592   3.917   0.641   1.274 -0.0912  0.1637  1.3878
 1919SOL    HW2 5593   3.912   0.490   1.268 -1.6624  0.2517 -1.7908
 1920SOL     OW 5594   2.291   4.034   3.176  0.0171 -0.7208  0.2110
 1920SOL    HW1 5595   2.309   3.941   3.188  0.1869 -0.6704  0.3486
 1920SOL    HW2 5596   2.261   4.042   3.085  1.0076 -0.7920 -0.1247
 1921SOL     OW 5597   3.782   2.511   0.001 -0.3943 -0.2603  0.0658
 1921SOL    HW1 5598   3.768   2.581  -0.063 -1.6681 -1.0532 -0.5469
 1921SOL    HW2 5599   3.719   2.530   0.071 -0.5602 -0.5874  0.0103
 1922SOL     OW 5600   3.850   0.412   0.302 -0.0085 -0.2780  0.1139
 1922SOL    HW1 5601   3.889   0.355   0.368  1.5106  0.4197 -0.1265
 1922SOL    HW2 5602   3.857   0.362   0.220  2.3637  0.5981 -0.3071
 1923SOL     OW 5603   2.719   2.353   0.615  0.2927 -0.8280 -0.6687
 1923SOL    HW1 5604   2.643   2.314   0.659 -1.1569  1.0507 -1.3574
 1923SOL    HW2 5605   2.687   2.437   0.582  2.8778  0.3371 -0.4445
 1924SOL     OW 5606   2.305   3.467   2.288 -0.3146  0.7537 -0.0582
 1924SOL    HW1 5607   2.244   3.413   2.338  0.3531  0.0253 -0.0081
 1924SOL    HW2 5608   2.389   3.457   2.332  1.0070 -2.2336 -2.8147
 1925SOL     OW 5609   3.805   2.220   3.538 -0.3529  0.0915  0.4345
 1925SOL    HW1 5610   3.874   2.253   3.596  0.5402 -2.4606  0.9515
 1925SOL    HW2 5611   3.814   2.272   3.458  1.0034  1.0102  1.1400
 1926SOL     OW 5612   1.174   0.440   2.582  0.3348  0.0240  0.2583
 1926SOL    HW1 5613   1.128   0.367   2.625  0.3838  1.1129  2.2816
 1926SOL    HW2 5614   1.251   0.454   2.637  0.2012  1.7506  0.0388
 1927SOL     OW 5615   2.336   2.296   1.096 -0.4410 -0.8897 -0.3526
 1927SOL    HW1 5616   2.324   2.379   1.144  0.4578 -0.9121 -0.0620
 1927SOL    HW2 5617   2.425   2.268   1.119 -0.8845 -2.1630 -0.1108
 1928SOL     OW 5618   4.062   1.528   2.529  0.3478 -0.1193 -0.5107
 1928SOL    HW1 5619   4.019   1.447   2.502 -0.3751  0.3398 -0.7451
 1928SOL    HW2 5620   4.011   1.598   2.488 -0.4397  0.5863  1.5222
 1929SOL     OW 5621   1.713   2.082   2.755 -0.3223 -0.8926  0.1299
 1929SOL    HW1 5622   1.705   2.177   2.759  3.9042 -0.3783  3.3861
 1929SOL    HW2 5623   1.787   2.066   2.697 -0.4310 -2.1476  0.2983
 1930SOL     OW 5624   2.180   2.331   2.423  0.0389  0.1736  0.1585
 1930SOL    HW1 5625   2.169   2.286   2.507  0.6795 -0.7478 -0.2308
 1930SOL    HW2 5626   2.258   2.384   2.434 -0.9956  1.6272  0.7832
 1931SOL     OW 5627   3.296   1.370   2.400 -0.0709 -0.0046  0.0773
 1931SOL    HW1 5628   3.270   1.351   2.310 -1.1651 -1.4322  0.6497
 1931SOL    HW2 5629   3.386   1.401   2.393 -0.4720  0.8860 -1.5913
 1932SOL     OW 5630   2.384   2.470   2.496 -0.0630  0.3391 -0.2099
 1932SOL    HW1 5631   2.366   2.479   2.589  0.5633 -0.8979  0.0556
 1932SOL    HW2 5632   2.467   2.516   2.483  0.4079 -0.4208  0.0684
 1933SOL     OW 5633   2.587   1.232   2.695  0.3033  0.1984 -0.5208
 1933SOL    HW1 5634   2.678   1.245   2.668  1.0414 -2.7868  0.1272
 1933SOL    HW2 5635   2.591   1.164   2.762 -2.2798  1.3582  0.9712
 1934SOL     OW 5636   2.934   3.079   3.909  0.0699  0.4011 -0.4442
 1934SOL    HW1 5637   2.869   3.124   3.855 -0.2509 -0.2054 -0.5829
 1934SOL    HW2 5638   3.018   3.120   3.886 -0.5001  2.8614  1.5093
 1935SOL     OW 5639   2.302   0.076   0.548  0.2161  0.1215  0.1868
 1935SOL    HW1 5640   2.357   0.037   0.480  0.9335 -0.5468  1.1543
 1935SOL    HW2 5641   2.216   0.036   0.534  0.3035  0.1322 -0.4222
 1936SOL     OW 5642   0.384   1.876   2.385  0.3232 -0.1404 -0.3957
 1936SOL    HW1 5643   0.320   1.810   2.413  0.9955 -0.2020  1.1222
 1936SOL    HW2 5644   0.468   1.840   2.413  0.8807  0.5603 -1.1447
 1937SOL     OW 5645   1.273   2.094   3.755 -0.3446  0.0709  0.0889
 1937SOL    HW1 5646   1.185   2.084   3.791  0.3477 -2.4215  1.3224
 1937SOL    HW2 5647   1.331   2.083   3.830  1.0606 -1.5022 -1.1508
 1938SOL     OW 5648   0.168   2.401   1.917 -0.1992  0.5276  0.4165
 1938SOL    HW1 5649   0.138   2.438   1.834 -0.7092  0.7687  0.7017
 1938SOL    HW2 5650   0.088   2.378   1.964  0.0990 -0.7398  0.3463
 1939SOL     OW 5651   1.985   1.122   3.275  0.3564  0.2603 -0.4545
 1939SOL    HW1 5652   1.964   1.077   3.357  0.2421  1.9544  0.4937
 1939SOL    HW2 5653   2.079   1.139   3.281  0.0034  2.1461  0.2886
 1940SOL     OW 5654   1.407   0.253   2.799 -0.1529  0.0614  0.5155
 1940SOL    HW1 5655   1.484   0.201   2.776 -0.1148  0.0237  0.7233
 1940SOL    HW2 5656   1.339   0.222   2.739 -0.1857 -0.3789  0.7750
 1941SOL     OW 5657   0.640   3.664   1.419  0.4044  0.3166 -0.2487
 1941SOL    HW1 5658   0.691   3.738   1.453 -0.1227  0.0426  1.2040
 1941SOL    HW2 5659   0.563   3.660   1.475 -0.9846  0.3783 -2.0766
 1942SOL     OW 5660   2.587   0.072   2.153 -0.0425  0.4646  0.7559
 1942SOL    HW1 5661   2.557   0.031   2.072 -0.4831  0.9640  0.6628
 1942SOL    HW2 5662   2.609   0.162   2.128  1.8396  0.0417  0.7569
 1943SOL     OW 5663   2.865   2.099   0.603 -0.3393 -0.0574  0.6824
 1943SOL    HW1 5664   2.823   2.183   0.623  0.9491  0.3671  1.8511
 1943SOL    HW2 5665   2.913   2.115   0.522 -0.5830  0.1715  0.5852
 1944SOL     OW 5666   4.014   0.664   3.820 -0.2865 -0.2393  0.6872
 1944SOL    HW1 5667   4.104   0.632   3.823  0.6005  2.1266  1.6217
 1944SOL    HW2 5668   4.004   0.700   3.732 -0.1652 -0.0978  0.7315
 1945SOL     OW 5669   1.318   1.746   2.877  0.0917 -0.1430 -0.0934
 1945SOL    HW1 5670   1.287   1.833   2.850  1.7596 -0.0951 -2.0906
 1945SOL    HW2 5671   1.354   1.707   2.797  1.2513 -1.8649  1.1900
 1946SOL     OW 5672   0.898   2.805   1.530 -0.1888 -0.1252 -0.2866
 1946SOL    HW1 5673   0.873   2.816   1.438  0.2258 -2.7882 -0.8235
 1946SOL    HW2 5674   0.993   2.816   1.531 -0.4774  3.0509  0.4775
 1947SOL     OW 5675   2.107   1.891   2.532  0.0222  0.1014  0.6988
 1947SOL    HW1 5676   2.101   1.815   2.590  0.1737  1.3704  2.4691
 1947SOL    HW2 5677   2.200   1.899   2.513 -0.1808 -1.2741 -1.1411
 1948SOL     OW 5678   1.406   1.175   4.053 -0.0421 -0.2501  0.3423
 1948SOL    HW1 5679   1.353   1.190   4.131 -2.2176 -1.8989 -0.7508
 1948SOL    HW2 5680   1.379   1.243   3.992  0.0111 -0.3025  0.2597
 1949SOL     OW 5681   1.034   0.664   1.001  1.0762 -0.1816 -0.4505
 1949SOL    HW1 5682   1.019   0.752   1.034  3.2954  0.3092 -0.5445
 1949SOL    HW2 5683   0.954   0.641   0.954  0.4215  1.7559 -0.3570
 1950SOL     OW 5684   0.066   2.377   2.852  0.0440  0.2510  0.5100
 1950SOL    HW1 5685   0.094   2.294   2.815  1.5374  0.3913  1.2513
 1950SOL    HW2 5686   0.058   2.360   2.946 -0.6458  0.6830  0.5346
 1951SOL     OW 5687   0.606   0.137   1.923 -0.2377  0.0299  0.5036
 1951SOL    HW1 5688   0.517   0.105   1.908 -1.1293  1.4357  2.2993
 1951SOL    HW2 5689   0.595   0.231   1.938  1.7508  0.4815 -0.5714
 1952SOL     OW 5690   2.063   0.645   0.284  0.9066  0.1216 -0.7051
 1952SOL    HW1 5691   2.112   0.680   0.359 -0.1004  0.0656 -0.0027
 1952SOL    HW2 5692   2.009   0.718   0.254 -0.4662 -0.5107  0.1458
 1953SOL     OW 5693   1.511   0.852   1.271 -0.3756 -0.2017  0.0343
 1953SOL    HW1 5694   1.591   0.848   1.323  0.0351 -1.0519 -0.6328
 1953SOL    HW2 5695   1.442   0.870   1.334  0.2195 -0.3844  0.7481
 1954SOL     OW 5696   2.369   2.673   0.231 -0.0118  0.6867  0.1348
 1954SOL    HW1 5697   2.438   2.622   0.188  0.1062 -0.5154  1.6760
 1954SOL    HW2 5698   2.377   2.760   0.192  1.9885  0.4230 -0.1706
 1955SOL     OW 5699   3.541   2.146   2.839  0.4204 -0.2319  0.3823
 1955SOL    HW1 5700   3.532   2.130   2.745  1.0865 -2.6194  0.6593
 1955SOL    HW2 5701   3.479   2.086   2.879 -1.1469  2.0045  1.4845
 1956SOL     OW 5702   2.622   1.050   3.232  0.5827 -0.1279 -0.6497
 1956SOL    HW1 5703   2.589   0.964   3.256  1.2428 -0.0612  0.5648
 1956SOL    HW2 5704   2.717   1.041   3.232  0.7139  0.8805  0.7308
 1957SOL     OW 5705   2.027   3.700   0.341 -0.3710  0.0481 -0.1796
 1957SOL    HW1 5706   2.116   3.669   0.360  0.0561  0.9529 -0.6504
 1957SOL    HW2 5707   1.978   3.680   0.421  0.6793  1.0836  0.7698
 1958SOL     OW 5708   4.006   1.937   0.135 -0.2051  0.5990  0.0436
 1958SOL    HW1 5709   3.958   1.878   0.193  0.4769 -0.6346 -0.5833
 1958SOL    HW2 5710   4.042   2.004   0.193 -0.1410 -0.1918  0.9523
 1959SOL     OW 5711   1.332   2.128   0.716 -0.8074 -0.4433 -0.0823
 1959SOL    HW1 5712   1.377   2.054   0.758 -0.1218 -0.3682 -0.6830
 1959SOL    HW2 5713   1.327   2.194   0.785 -0.4265 -0.6300  0.1316
 1960SOL     OW 5714   2.815   3.425   3.328  0.0798  0.1419  0.1822
 1960SOL    HW1 5715   2.772   3.503   3.363 -0.5244  0.0730 -0.3953
 1960SOL    HW2 5716   2.755   3.393   3.261  2.1305  1.4265 -2.4211
 1961SOL     OW 5717   2.239   3.767   1.053 -0.0982 -0.1498 -0.0630
 1961SOL    HW1 5718   2.238   3.683   1.009  0.3995  0.5785 -1.5343
 1961SOL    HW2 5719   2.147   3.793   1.058 -0.2218 -0.6008  0.0703
 1962SOL     OW 5720   1.828   1.495   2.830  0.0507 -0.0692 -0.1149
 1962SOL    HW1 5721   1.762   1.430   2.806 -0.5024  0.7291 -0.7947
 1962SOL    HW2 5722   1.815   1.567   2.768  0.5708  0.7483  0.7001
 1963SOL     OW 5723   0.710   3.177   1.248 -0.3091 -0.1358  0.0505
 1963SOL    HW1 5724   0.672   3.237   1.312  0.2638  1.4799 -1.0662
 1963SOL    HW2 5725   0.638   3.159   1.187  0.2876  2.0560 -1.4395
 1964SOL     OW 5726   2.713   1.303   1.051 -0.0099 -0.4719 -0.0565
 1964SOL    HW1 5727   2.625   1.281   1.019 -0.2475  3.0350 -2.3726
 1964SOL    HW2 5728   2.769   1.232   1.020 -1.0773  0.2970 -4.3439
 1965SOL     OW 5729   0.868   3.677   3.287 -0.6898  0.0334 -0.0980
 1965SOL    HW1 5730   0.844   3.769   3.274  0.4223  0.4620  0.7474
 1965SOL    HW2 5731   0.854   3.661   3.380 -1.5049 -0.8543 -0.3660
 1966SOL     OW 5732   3.000   3.465   1.931 -0.4035 -0.6952 -0.4122
 1966SOL    HW1 5733   3.076   3.523   1.926  0.2411 -1.2892  1.5717
 1966SOL    HW2 5734   3.037   3.380   1.955 -1.6398 -1.1482 -0.0840
 1967SOL     OW 5735   2.200   2.003   0.453 -0.0297  0.4975  0.1786
 1967SOL    HW1 5736   2.202   2.057   0.532  2.3228 -1.7141  1.7382
 1967SOL    HW2 5737   2.107   1.997   0.431 -0.7768  1.0592  2.8729
 1968SOL     OW 5738   3.587   0.374   0.397 -0.3918 -0.5095  0.6192
 1968SOL    HW1 5739   3.586   0.417   0.482 -2.0840  0.8620 -0.0324
 1968SOL    HW2 5740   3.672   0.398   0.359 -0.8380  1.4314  0.7320
 1969SOL     OW 5741   3.016   0.993   1.824  0.2122  0.0968 -0.2019
 1969SOL    HW1 5742   3.105   0.961   1.814  0.1530 -0.2434  0.3328
 1969SOL    HW2 5743   2.996   0.979   1.917  0.2187  1.7543  0.0807
 1970SOL     OW 5744   2.265   3.195   1.989  0.6104 -0.1377 -0.1688
 1970SOL    HW1 5745   2.293   3.134   1.920  2.4056 -0.4796  0.7916
 1970SOL    HW2 5746   2.329   3.266   1.985  1.3141 -0.6072  1.6845
 1971SOL     OW 5747   1.283   0.646   3.033 -0.3595  0.5491  0.0209
 1971SOL    HW1 5748   1.334   0.727   3.042  2.4960 -0.9990 -0.9293
 1971SOL    HW2 5749   1.299   0.599   3.115 -1.5886  0.6879  0.3572
 1972SOL     OW 5750   1.746   2.190   2.149 -0.0592  1.1752 -0.5636
 1972SOL    HW1 5751   1.685   2.264   2.156 -0.4621  0.7154  1.6696
 1972SOL    HW2 5752   1.832   2.229   2.159 -0.3410  1.2712  2.6634
 1973SOL     OW 5753   1.522   0.582   0.042 -0.1262 -0.4376 -0.4250
 1973SOL    HW1 5754   1.541   0.665  -0.001  1.3356 -0.6096 -0.1108
 1973SOL    HW2 5755   1.477   0.530  -0.025  0.6923 -0.1263 -1.1964
 1974SOL     OW 5756   0.972   3.509   2.207 -0.3816  0.1863 -0.0832
 1974SOL    HW1 5757   1.040   3.572   2.233  0.9789 -2.2232  2.7351
 1974SOL    HW2 5758   0.892   3.543   2.248 -0.1460  1.1140 -0.3520
 1975SOL     OW 5759   1.280   0.877   3.356  0.3613 -0.1378 -0.1304
 1975SOL    HW1 5760   1.359   0.915   3.394  0.3987  0.3025 -0.6403
 1975SOL    HW2 5761   1.208   0.930   3.391  0.3634  0.0148 -0.3567
 1976SOL     OW 5762   1.185   2.714   3.897 -0.2045 -0.4426 -0.0801
 1976SOL    HW1 5763   1.126   2.724   3.822 -1.6043 -0.7178  0.9456
 1976SOL    HW2 5764   1.237   2.794   3.897 -1.5499  0.4617 -0.2038
 1977SOL     OW 5765   1.533   3.770   2.893 -0.2732  0.4048 -0.2907
 1977SOL    HW1 5766   1.445   3.752   2.860 -1.7945  2.8181  2.0582
 1977SOL    HW2 5767   1.585   3.785   2.815 -2.5913  1.4938 -1.7487
 1978SOL     OW 5768   3.031   1.205   1.678  0.1537 -0.0485  0.0295
 1978SOL    HW1 5769   2.940   1.235   1.686  0.6581  1.1149  2.0047
 1978SOL    HW2 5770   3.034   1.124   1.729  0.9210  1.7561  3.1515
 1979SOL     OW 5771   1.864   1.960   1.397  0.1423  0.2332 -0.4428
 1979SOL    HW1 5772   1.895   1.948   1.307 -1.2384 -2.3239 -0.6425
 1979SOL    HW2 5773   1.770   1.977   1.389 -0.1317 -0.6914  0.5218
 1980SOL     OW 5774   0.737   3.168   2.428 -0.8563 -0.1034  0.3120
 1980SOL    HW1 5775   0.818   3.145   2.474  0.6942  0.3578 -2.0023
 1980SOL    HW2 5776   0.699   3.238   2.480  0.5777  0.1285  1.1152
 1981SOL     OW 5777   0.378   1.910   1.527  0.3773 -0.1653 -0.3489
 1981SOL    HW1 5778   0.360   1.904   1.433 -1.1101 -1.4751 -0.0217
 1981SOL    HW2 5779   0.396   2.003   1.542  0.2367  0.1361 -1.8547
 1982SOL     OW 5780   0.256   3.390   2.425  0.3458 -0.0172  0.2498
 1982SOL    HW1 5781   0.328   3.357   2.371 -0.1599 -0.6832 -0.0231
 1982SOL    HW2 5782   0.177   3.355   2.384 -0.0464 -0.6019  1.4840
 1983SOL     OW 5783   0.636   2.754   1.657  0.1201 -0.3349 -0.1243
 1983SOL    HW1 5784   0.730   2.752   1.640  0.0301 -0.2731 -0.6656
 1983SOL    HW2 5785   0.610   2.845   1.638  0.1027 -0.1152  0.9030
 1984SOL     OW 5786   1.877   1.703   3.262  0.5383 -0.2178 -0.0741
 1984SOL    HW1 5787   1.903   1.652   3.185 -0.5544  0.6220 -1.0375
 1984SOL    HW2 5788   1.839   1.639   3.322 -0.0347 -0.6788 -0.9043
 1985SOL     OW 5789   1.942   1.336   0.460 -0.1544  0.0618  0.3305
 1985SOL    HW1 5790   2.029   1.299   0.470  0.4538  0.1626 -3.2936
 1985SOL    HW2 5791   1.951   1.427   0.488  0.7283 -0.0908  0.5649
 1986SOL     OW 5792   1.949   2.965   0.834 -0.0006 -0.4124  0.2829
 1986SOL    HW1 5793   1.987   2.922   0.757  1.0792 -1.2263  1.2411
 1986SOL    HW2 5794   1.924   2.892   0.892 -0.9765  0.1815  0.6302
 1987SOL     OW 5795   3.971   3.221   2.573  0.5393 -0.0867 -0.0568
 1987SOL    HW1 5796   3.984   3.314   2.553 -0.8678  0.0287 -0.5672
 1987SOL    HW2 5797   3.971   3.218   2.669  1.1509  0.3426 -0.0340
 1988SOL     OW 5798   4.008   2.448   3.935  0.2499  0.3929 -0.0832
 1988SOL    HW1 5799   3.929   2.470   3.984 -0.8494 -1.0233 -1.1336
 1988SOL    HW2 5800   4.031   2.529   3.890  1.3062  1.7544  2.6475
 1989SOL     OW 5801   2.972   3.754   1.445  0.2585  0.0807 -0.1726
 1989SOL    HW1 5802   2.910   3.681   1.448 -1.3916  1.3689 -1.2125
 1989SOL    HW2 5803   2.920   3.829   1.418  1.8903  1.6934  0.8853
 1990SOL     OW 5804   3.442   0.638   3.832  0.1862  0.1146  0.3815
 1990SOL    HW1 5805   3.493   0.575   3.883 -0.0030  0.7423  1.3618
 1990SOL    HW2 5806   3.360   0.647   3.879  0.2382  1.1484  0.2997
 1991SOL     OW 5807   1.985   2.596   3.796  0.3164 -0.5324  0.6046
 1991SOL    HW1 5808   1.898   2.559   3.780  0.6741 -1.7338  1.2532
 1991SOL    HW2 5809   2.043   2.545   3.739  0.7267 -0.4713  0.9624
 1992SOL     OW 5810   3.336   3.705   0.309  0.8975  0.1087  0.3308
 1992SOL    HW1 5811   3.373   3.757   0.238 -1.3331  0.1655 -0.9011
 1992SOL    HW2 5812   3.308   3.624   0.267 -1.7938  0.7228  0.7443
 1993SOL     OW 5813   0.140   1.370   2.693 -0.1467  1.1868  0.2723
 1993SOL    HW1 5814   0.064   1.326   2.730 -1.3103  1.3126 -1.7853
 1993SOL    HW2 5815   0.104   1.445   2.646  0.9363  0.0862 -2.5371
 1994SOL     OW 5816   0.286   0.746   3.217 -0.4041  0.3545  0.6882
 1994SOL    HW1 5817   0.274   0.827   3.168 -0.8835 -0.4289 -0.5362
 1994SOL    HW2 5818   0.374   0.753   3.253  0.1081  0.8299 -0.5804
 1995SOL     OW 5819   0.753   2.465   0.641  0.1573 -0.3582  0.5591
 1995SOL    HW1 5820   0.794   2.512   0.568 -0.0156 -1.0694  0.0004
 1995SOL    HW2 5821   0.661   2.459   0.616  0.2423 -1.3092  0.4598
 1996SOL     OW 5822   2.316   0.095   3.590  0.7100  0.2057 -0.5051
 1996SOL    HW1 5823   2.251   0.152   3.630  1.5740  1.9230 -1.4676
 1996SOL    HW2 5824   2.301   0.104   3.496  1.7632 -0.0751 -0.7114
 1997SOL     OW 5825   0.980   2.709   1.267  0.2487  0.2354  0.4957
 1997SOL    HW1 5826   0.916   2.680   1.202  0.5671  0.4801  0.0662
 1997SOL    HW2 5827   0.957   2.661   1.346 -0.1213 -0.0953  0.1933
 1998SOL     OW 5828   0.320   3.691   3.669  0.0915  0.0873  0.3274
 1998SOL    HW1 5829   0.313   3.596   3.668 -0.3672  0.0686  2.1675
 1998SOL    HW2 5830   0.251   3.720   3.728  0.0119  1.6023 -0.4520
 1999SOL     OW 5831   1.402   1.468   3.259 -1.1019  0.5658 -0.5182
 1999SOL    HW1 5832   1.422   1.477   3.166  1.0431  0.3871 -0.1339
 1999SOL    HW2 5833   1.452   1.537   3.302 -0.9622 -0.2043  0.6147
 2000SOL     OW 5834   2.825   3.333   1.038  0.0080 -0.2778  0.4502
 2000SOL    HW1 5835   2.868   3.251   1.065 -1.4265 -1.1499  0.1858
 2000SOL    HW2 5836   2.801   3.318   0.947  1.9055  1.4152 -0.4009
 2001SOL     OW 5837   1.916   1.636   0.412  0.3698 -0.3826  0.7241
 2001SOL    HW1 5838   1.959   1.697   0.473  0.3106 -0.7702  1.1611
 2001SOL    HW2 5839   1.910   1.684   0.330 -1.3894  0.9248  1.5500
 2002SOL     OW 5840   1.647   0.405   2.474  0.3674  0.3964 -0.8519
 2002SOL    HW1 5841   1.581   0.382   2.409  0.4655  2.7191 -1.8830
 2002SOL    HW2 5842   1.700   0.326   2.484  0.4641 -0.0259 -3.7804
 2003SOL     OW 5843   0.173   3.529   1.490  0.4263  0.2136  0.0550
 2003SOL    HW1 5844   0.095   3.484   1.457  0.4070 -0.5263  1.0566
 2003SOL    HW2 5845   0.241   3.462   1.489  0.8335  0.6240 -0.0065
 2004SOL     OW 5846   1.280   4.019   2.272 -0.7032 -0.1930 -0.3450
 2004SOL    HW1 5847   1.226   4.096   2.290 -2.0691 -0.7555 -1.9270
 2004SOL    HW2 5848   1.285   3.973   2.355  0.6603  1.8666  0.7962
 2005SOL     OW 5849   2.105   0.442   0.079 -0.6889  0.0280  0.2622
 2005SOL    HW1 5850   2.058   0.359   0.079  1.4377 -1.2965  1.9720
 2005SOL    HW2 5851   2.062   0.493   0.147  0.4383 -1.3149  2.0812
 2006SOL     OW 5852   2.240   2.436   3.100  0.1978 -0.2307  0.0571
 2006SOL    HW1 5853   2.330   2.423   3.129  0.3199 -1.8737 -0.8968
 2006SOL    HW2 5854   2.248   2.472   3.012 -0.1420  1.7444  0.7786
 2007SOL     OW 5855   1.287   3.347   2.982  0.1072 -0.1962  0.1428
 2007SOL    HW1 5856   1.227   3.418   3.005  1.8006  0.4659  2.9251
 2007SOL    HW2 5857   1.244   3.268   3.018  0.1462  0.0351  0.7043
 2008SOL     OW 5858   0.910   1.480   1.490 -0.3022 -0.0352 -0.0168
 2008SOL    HW1 5859   0.994   1.512   1.523  0.4230 -1.7969 -0.0749
 2008SOL    HW2 5860   0.931   1.440   1.406 -1.3922  0.4262 -0.5328
 2009SOL     OW 5861   3.648   0.707   2.065 -0.5771 -0.2236  0.0520
 2009SOL    HW1 5862   3.676   0.671   1.980 -0.8433 -0.1248 -0.0774
 2009SOL    HW2 5863   3.650   0.802   2.052  0.6204 -0.1625  0.5484
 2010SOL     OW 5864   3.624   1.328   2.378  0.1446 -0.3731 -0.0429
 2010SOL    HW1 5865   3.575   1.307   2.298 -2.3414  2.4031  0.5572
 2010SOL    HW2 5866   3.707   1.281   2.369 -1.2560 -2.6388 -2.7637
 2011SOL     OW 5867   3.257   3.307   0.460 -0.1694  0.2980  0.0873
 2011SOL    HW1 5868   3.247   3.212   0.457 -0.8188  0.3562  0.1978
 2011SOL    HW2 5869   3.187   3.340   0.402  0.7220  0.6736 -0.8128
 2012SOL     OW 5870   3.368   1.788   1.453  0.2063  0.0278  0.2207
 2012SOL    HW1 5871   3.433   1.819   1.390  0.5932  0.3656  0.7692
 2012SOL    HW2 5872   3.375   1.692   1.450  0.3077  0.0458 -0.1534
 2013SOL     OW 5873   3.045   3.380   2.274 -0.3343  0.2376 -0.4906
 2013SOL    HW1 5874   3.026   3.327   2.197  0.7921 -0.9366 -0.0056
 2013SOL    HW2 5875   2.994   3.340   2.344  0.9914 -0.6548  0.0125
 2014SOL     OW 5876   2.785   0.403   0.623  0.0995  0.2371  0.1073
 2014SOL    HW1 5877   2.779   0.432   0.532 -0.3185  0.5701  0.2363
 2014SOL    HW2 5878   2.708   0.441   0.665 -0.3144 -0.8294  0.3462
 2015SOL     OW 5879   0.333   3.090   2.314 -0.8873 -0.6018  0.2647
 2015SOL    HW1 5880   0.389   3.062   2.387 -0.0440  0.2646 -0.0346
 2015SOL    HW2 5881   0.246   3.057   2.337 -0.5804 -0.5721  1.5281
 2016SOL     OW 5882   0.600   1.576   2.465  0.5688 -0.5615  0.0172
 2016SOL    HW1 5883   0.510   1.581   2.435  0.9215  0.0901 -0.9841
 2016SOL    HW2 5884   0.593   1.560   2.559 -0.6085  0.8746  0.2207
 2017SOL     OW 5885   1.165   2.402   3.774  0.2290 -0.3918 -0.7402
 2017SOL    HW1 5886   1.196   2.478   3.724 -1.0165  1.0441  0.5589
 2017SOL    HW2 5887   1.078   2.384   3.739 -0.2985  0.0766  0.2796
 2018SOL     OW 5888   3.578   1.393   2.637  0.3199 -0.0267 -0.5669
 2018SOL    HW1 5889   3.638   1.466   2.653  0.9124 -0.2890 -1.5052
 2018SOL    HW2 5890   3.608   1.354   2.555 -0.6024 -0.7123 -0.6056
 2019SOL     OW 5891   2.631   1.006   3.984 -0.0732  0.3725  0.0096
 2019SOL    HW1 5892   2.683   1.052   3.918 -0.6651 -0.1265 -0.8199
 2019SOL    HW2 5893   2.614   0.920   3.945 -1.2373  0.4133  0.4037
 2020SOL     OW 5894   2.075   0.595   2.099  0.7770 -0.2946 -0.1060
 2020SOL    HW1 5895   2.108   0.674   2.056  2.3710 -1.7610 -1.7199
 2020SOL    HW2 5896   2.004   0.565   2.043 -1.1856  0.9823  1.5563
 2021SOL     OW 5897   1.437   3.392   4.000  0.0573 -0.5074 -0.3399
 2021SOL    HW1 5898   1.356   3.346   4.024 -0.4558 -0.3746 -1.7266
 2021SOL    HW2 5899   1.414   3.485   4.007  0.2298 -0.4692 -0.2889
 2022SOL     OW 5900   2.075   0.976   2.243  0.2828  0.2349  0.6456
 2022SOL    HW1 5901   2.161   0.939   2.261 -0.0946 -1.0327 -0.0198
 2022SOL    HW2 5902   2.030   0.977   2.327  0.1128 -1.3732  0.5982
 2023SOL     OW 5903   1.513   0.729   1.592 -0.5321  0.4359 -0.4672
 2023SOL    HW1 5904   1.479   0.744   1.680 -1.1826 -0.7120 -0.4972
 2023SOL    HW2 5905   1.607   0.720   1.603 -0.5082  1.2038 -0.0222
 2024SOL     OW 5906   0.599   3.502   3.345 -0.6894  0.4621 -0.3164
 2024SOL    HW1 5907   0.680   3.543   3.376 -0.0228  0.5132 -2.0150
 2024SOL    HW2 5908   0.591   3.423   3.399  0.0708  0.8609  0.4087
 2025SOL     OW 5909   3.197   1.343   3.093 -0.3002 -0.3007  0.0633
 2025SOL    HW1 5910   3.166   1.430   3.067  0.1875 -0.1214  0.0726
 2025SOL    HW2 5911   3.283   1.359   3.133 -0.5517 -0.6949  0.7819
 2026SOL     OW 5912   1.727   0.474   2.225 -0.2144  0.0808 -0.1853
 2026SOL    HW1 5913   1.709   0.478   2.319  1.0493 -1.5963  0.1600
 2026SOL    HW2 5914   1.756   0.563   2.203 -2.5568  1.0965  0.5215
 2027SOL     OW 5915   3.382   1.976   2.965  0.9113  0.1379  0.5137
 2027SOL    HW1 5916   3.328   1.986   2.887  1.6965  0.7293  0.0234
 2027SOL    HW2 5917   3.390   1.881   2.977 -0.1095  0.0426  0.5276
 2028SOL     OW 5918   1.509   2.105   0.450 -0.0266  0.4313  0.0036
 2028SOL    HW1 5919   1.563   2.029   0.431 -1.1980 -0.3623 -0.2973
 2028SOL    HW2 5920   1.471   2.086   0.536 -0.4201  0.6107 -0.1276
 2029SOL     OW 5921   3.352   0.449   1.575 -0.0473 -0.4154  0.5898
 2029SOL    HW1 5922   3.439   0.472   1.544  0.0961 -1.0941  0.4724
 2029SOL    HW2 5923   3.297   0.456   1.497 -0.2695  0.8032  0.8277
 2030SOL     OW 5924   0.359   0.117   2.299 -0.1384  0.3998  0.4027
 2030SOL    HW1 5925   0.266   0.094   2.290 -0.2052  1.4076 -2.7549
 2030SOL    HW2 5926   0.400   0.039   2.335 -1.9601 -0.7125  0.1739
 2031SOL     OW 5927   0.535   1.031   3.724 -0.4364  0.5517  0.1958
 2031SOL    HW1 5928   0.501   0.963   3.666  0.3681  0.5368 -0.2800
 2031SOL    HW2 5929   0.627   1.006   3.739 -0.4997  0.8088  1.0976
 2032SOL     OW 5930   0.721   0.445   0.667 -0.1314  0.3595  0.1023
 2032SOL    HW1 5931   0.680   0.429   0.582 -0.1293  0.5878  0.0585
 2032SOL    HW2 5932   0.713   0.361   0.713  0.3878  0.0507 -0.3411
 2033SOL     OW 5933   0.916   1.402   2.173  0.1150  0.2343  0.6230
 2033SOL    HW1 5934   0.923   1.420   2.080  1.5962  0.6180  0.7679
 2033SOL    HW2 5935   0.885   1.484   2.211  0.0485  0.2580  0.5159
 2034SOL     OW 5936   0.329   1.253   2.490  0.7297  0.3004 -0.5266
 2034SOL    HW1 5937   0.288   1.339   2.485  0.0465 -0.0493 -1.2638
 2034SOL    HW2 5938   0.418   1.267   2.460  0.9709  0.9570  0.4605
 2035SOL     OW 5939   1.235   1.831   1.351 -0.4248  0.2002  0.6545
 2035SOL    HW1 5940   1.313   1.807   1.402 -0.3459 -1.1100 -0.0364
 2035SOL    HW2 5941   1.221   1.756   1.292 -2.4104  0.2489  0.9938
 2036SOL     OW 5942   0.695   0.412   1.684 -0.1211  0.2848 -0.4564
 2036SOL    HW1 5943   0.738   0.488   1.644 -0.4689  0.8424  0.2007
 2036SOL    HW2 5944   0.714   0.421   1.778 -2.2077  0.9137 -0.0490
 2037SOL     OW 5945   2.473   0.658   3.284  0.4504 -0.2852 -0.3633
 2037SOL    HW1 5946   2.502   0.600   3.355  0.8792 -1.2419 -1.2934
 2037SOL    HW2 5947   2.445   0.599   3.214 -1.6632  0.6360 -0.3520
 2038SOL     OW 5948   1.646   3.383   0.550 -0.6937  0.0616 -0.7272
 2038SOL    HW1 5949   1.682   3.378   0.462 -0.2349 -0.8102 -0.4937
 2038SOL    HW2 5950   1.600   3.300   0.562  1.1676 -0.8397  0.6610
 2039SOL     OW 5951   0.729   2.714   1.143  0.5061 -0.1414 -0.0125
 2039SOL    HW1 5952   0.694   2.628   1.122 -1.0863  0.5215 -0.2820
 2039SOL    HW2 5953   0.726   2.762   1.060 -2.3184  1.3493  0.8254
 2040SOL     OW 5954   2.622   2.766   1.263 -0.1755 -0.2761  0.2639
 2040SOL    HW1 5955   2.664   2.680   1.262 -0.7112 -0.5447  0.4475
 2040SOL    HW2 5956   2.693   2.827   1.246  0.1936 -0.7629  0.0173
 2041SOL     OW 5957   2.931   3.195   0.107  0.7562  0.2154 -0.1514
 2041SOL    HW1 5958   2.933   3.117   0.162  0.9425  1.1582  1.2273
 2041SOL    HW2 5959   2.941   3.162   0.017 -0.3621 -1.4204  0.2898
 2042SOL     OW 5960   4.021   0.531   0.884  0.0169 -0.2443 -0.0379
 2042SOL    HW1 5961   4.001   0.438   0.875 -0.8060 -0.0359 -0.4316
 2042SOL    HW2 5962   4.109   0.533   0.921 -0.2445 -1.1825  0.5650
 2043SOL     OW 5963   2.012   2.293   0.442  0.2522 -0.1434 -0.1730
 2043SOL    HW1 5964   1.985   2.221   0.385 -0.5344  0.3029 -0.3786
 2043SOL    HW2 5965   2.103   2.309   0.419  0.0771 -0.2672 -0.9874
 2044SOL     OW 5966   2.455   4.021   1.929  0.5281 -0.5725 -0.4517
 2044SOL    HW1 5967   2.403   3.999   1.852  0.0471  0.0755 -0.3192
 2044SOL    HW2 5968   2.527   4.074   1.895  0.0095  0.1853 -0.4016
 2045SOL     OW 5969   0.036   3.628   3.479  0.1605  0.5034  0.2588
 2045SOL    HW1 5970  -0.059   3.629   3.491  0.3481 -0.0091  1.7110
 2045SOL    HW2 5971   0.049   3.631   3.384 -1.2847  1.0972  0.0577
 2046SOL     OW 5972   3.662   3.768   3.243  0.0795 -0.5287  0.3226
 2046SOL    HW1 5973   3.661   3.844   3.301 -0.1738 -0.1946 -0.1054
 2046SOL    HW2 5974   3.754   3.753   3.224  0.1388 -0.4070  0.5110
 2047SOL     OW 5975   0.613   1.298   2.386 -0.3569  0.0935  0.4023
 2047SOL    HW1 5976   0.616   1.275   2.293  0.1842 -1.4052  0.7501
 2047SOL    HW2 5977   0.612   1.393   2.387  2.7714  0.2745 -1.1116
 2048SOL     OW 5978   2.793   2.718   2.002  0.0536  0.7603 -0.2238
 2048SOL    HW1 5979   2.851   2.705   1.927  0.0813 -0.0699 -0.0781
 2048SOL    HW2 5980   2.706   2.696   1.969  0.1236 -0.0254  0.0802
 2049SOL     OW 5981   3.318   3.686   1.740  0.0284  0.7361 -0.0527
 2049SOL    HW1 5982   3.278   3.773   1.749  0.1999  0.8390 -0.2659
 2049SOL    HW2 5983   3.337   3.659   1.830  0.7400  1.2836 -0.0300
 2050SOL     OW 5984   3.784   0.647   0.981  0.1121  0.0475  0.2501
 2050SOL    HW1 5985   3.854   0.708   0.958  0.6053 -0.3674  0.6008
 2050SOL    HW2 5986   3.801   0.570   0.928 -1.1168  0.5810 -0.9661
 2051SOL     OW 5987   2.174   3.711   3.219  0.4970 -0.1211 -0.0329
 2051SOL    HW1 5988   2.231   3.725   3.143  1.3323 -1.0650  0.3951
 2051SOL    HW2 5989   2.227   3.739   3.294  0.4715 -1.1365  0.3844
 2052SOL     OW 5990   2.440   2.458   0.078 -0.2773 -0.0502  0.3411
 2052SOL    HW1 5991   2.508   2.392   0.066 -0.3748 -0.8809  3.4558
 2052SOL    HW2 5992   2.364   2.423   0.032  0.4433 -0.7378 -0.3585
 2053SOL     OW 5993   3.179   0.891   1.175  0.2266 -0.1317  0.3167
 2053SOL    HW1 5994   3.261   0.855   1.142  0.0919  0.8754 -1.2075
 2053SOL    HW2 5995   3.135   0.816   1.215  0.7351 -1.2970 -1.1905
 2054SOL     OW 5996   3.317   1.217   1.722  0.0928 -0.7297  0.3099
 2054SOL    HW1 5997   3.291   1.309   1.724 -0.1117 -0.7467 -1.0952
 2054SOL    HW2 5998   3.244   1.172   1.680  0.6837 -1.3718 -0.0433
 2055SOL     OW 5999   2.993   0.057   3.253  0.0249  0.6041 -0.0536
 2055SOL    HW1 6000   3.022   0.077   3.342 -0.1838 -0.0823  0.1752
 2055SOL    HW2 6001   3.049  -0.015   3.225 -1.5668 -0.8852  0.4955
 2056SOL     OW 6002   2.788   2.919   0.477 -0.0148 -0.2787  0.4988
 2056SOL    HW1 6003   2.832   2.998   0.508  0.5409  0.6817 -2.4034
 2056SOL    HW2 6004   2.850   2.848   0.494  0.5163  0.2891  0.9612
 2057SOL     OW 6005   3.831   2.670   0.384 -0.8316 -0.3113 -0.3465
 2057SOL    HW1 6006   3.822   2.731   0.310 -1.7285 -1.7609 -1.4879
 2057SOL    HW2 6007   3.757   2.691   0.441  0.8036  1.9729  1.1166
 2058SOL     OW 6008   3.665   1.637   3.869  0.1043  0.0386 -0.1705
 2058SOL    HW1 6009   3.711   1.667   3.791  0.2543 -0.2437 -0.1936
 2058SOL    HW2 6010   3.573   1.655   3.851  0.2848  1.4452  0.2577
 2059SOL     OW 6011   1.388   2.120   3.188 -0.7520  0.7892 -0.5326
 2059SOL    HW1 6012   1.301   2.085   3.208 -0.1893 -1.1327 -1.1910
 2059SOL    HW2 6013   1.397   2.107   3.093 -0.9792  4.0241 -1.1194
 2060SOL     OW 6014   1.240   3.783   1.277 -0.9730 -0.1051 -0.0709
 2060SOL    HW1 6015   1.180   3.791   1.204 -0.6301  0.8712 -0.2678
 2060SOL    HW2 6016   1.191   3.738   1.345 -0.5153 -3.4185 -1.7450
 2061SOL     OW 6017   2.729   0.262   2.410  0.7906  0.8447  0.4505
 2061SOL    HW1 6018   2.745   0.182   2.361 -1.7118  0.0812  0.7324
 2061SOL    HW2 6019   2.780   0.329   2.365 -1.2202  0.1741 -3.2149
 2062SOL     OW 6020   2.383   1.791   2.771  0.2372 -0.5372 -0.3238
 2062SOL    HW1 6021   2.380   1.849   2.695 -0.1194 -1.0418 -0.7036
 2062SOL    HW2 6022   2.401   1.704   2.735  0.3687 -0.7310  0.1977
 2063SOL     OW 6023   2.408   2.002   1.005  0.0195  0.2900  0.0834
 2063SOL    HW1 6024   2.387   1.943   0.932  0.2697 -1.0481  1.0694
 2063SOL    HW2 6025   2.350   2.077   0.991 -1.4848 -0.8826 -0.3132
 2064SOL     OW 6026   1.310   1.913   3.566 -0.0852 -0.2733 -0.5654
 2064SOL    HW1 6027   1.394   1.889   3.605 -0.5721 -1.5182 -0.2595
 2064SOL    HW2 6028   1.273   1.978   3.626 -0.8718 -2.2325  1.1866
 2065SOL     OW 6029   0.431   0.814   1.138  0.2095  0.3510 -0.5039
 2065SOL    HW1 6030   0.355   0.819   1.081 -1.2749 -0.5113  1.2724
 2065SOL    HW2 6031   0.461   0.723   1.131  0.4785  0.4325 -0.4496
 2066SOL     OW 6032   2.136   0.963   0.036  0.5031  0.6698  0.0595
 2066SOL    HW1 6033   2.180   1.027   0.092 -0.5997  0.2910  1.4338
 2066SOL    HW2 6034   2.100   1.014  -0.036  4.0915  0.8624 -1.8004
 2067SOL     OW 6035   0.570   3.361   2.509  0.2007  0.3700  0.4494
 2067SOL    HW1 6036   0.530   3.433   2.559 -0.9628 -0.3668  0.6125
 2067SOL    HW2 6037   0.558   3.386   2.417 -2.7330 -0.8418  0.3944
 2068SOL     OW 6038   3.716   1.217   3.967 -0.0679  0.2967  0.7678
 2068SOL    HW1 6039   3.747   1.130   3.992 -1.3758 -0.7023 -0.8966
 2068SOL    HW2 6040   3.639   1.232   4.022 -0.8637 -0.3698 -0.1437
 2069SOL     OW 6041   0.971   0.514   3.464 -0.3698 -0.2164  0.2651
 2069SOL    HW1 6042   1.022   0.594   3.452 -0.1470 -0.4672 -0.5096
 2069SOL    HW2 6043   0.956   0.481   3.375  1.1395 -2.0249  0.6207
 2070SOL     OW 6044   1.863   2.749   0.987 -0.3570 -0.1322  0.1624
 2070SOL    HW1 6045   1.846   2.744   1.081 -1.7281  0.2573 -0.0475
 2070SOL    HW2 6046   1.836   2.664   0.953  0.5827 -0.4474  0.1677
 2071SOL     OW 6047   3.185   2.014   3.465 -0.5736 -1.0036 -0.1944
 2071SOL    HW1 6048   3.177   2.088   3.404  0.1309 -1.6819 -1.1474
 2071SOL    HW2 6049   3.213   1.941   3.410  1.2976 -1.3566  1.1443
 2072SOL     OW 6050   2.164   1.838   3.509 -0.2878 -0.0437 -0.0612
 2072SOL    HW1 6051   2.254   1.857   3.481 -0.5711 -0.6347 -1.5034
 2072SOL    HW2 6052   2.161   1.863   3.601  1.6015 -0.8161  0.2573
 2073SOL     OW 6053   3.566   1.212   1.518  0.2708  0.5126 -0.1818
 2073SOL    HW1 6054   3.641   1.230   1.575 -0.2046  0.9181  0.3301
 2073SOL    HW2 6055   3.493   1.198   1.578  0.2763 -1.6482 -0.6166
 2074SOL     OW 6056   2.518   0.950   0.927  0.1925  0.3285  0.9855
 2074SOL    HW1 6057   2.575   0.893   0.978  0.9570 -0.0103 -0.2112
 2074SOL    HW2 6058   2.431   0.935   0.963  0.2469 -2.1560  0.2712
 2075SOL     OW 6059   0.605   2.589   3.863 -0.3163  0.0499  0.3843
 2075SOL    HW1 6060   0.639   2.641   3.935  2.3857 -1.1227  0.0900
 2075SOL    HW2 6061   0.654   2.507   3.867 -2.2794 -1.3041 -0.9599
 2076SOL     OW 6062   2.031   3.510   0.124 -0.0035 -0.3496 -0.1364
 2076SOL    HW1 6063   1.997   3.579   0.181 -0.8017 -2.3570  2.0059
 2076SOL    HW2 6064   2.102   3.470   0.175 -0.4651 -1.9615 -0.7110
 2077SOL     OW 6065   2.404   1.001   0.562 -0.4379  0.0186  0.5820
 2077SOL    HW1 6066   2.492   0.997   0.601 -0.4958 -1.6465  0.6022
 2077SOL    HW2 6067   2.381   1.094   0.565  1.8455  0.7123 -0.6155
 2078SOL     OW 6068   1.557   2.858   0.181 -0.2085  0.3111 -0.2189
 2078SOL    HW1 6069   1.610   2.937   0.171  0.1752  0.2017  0.8100
 2078SOL    HW2 6070   1.620   2.789   0.202 -0.5125 -0.3315 -1.3430
 2079SOL     OW 6071   1.851   2.006   1.092 -0.2669  0.5493 -0.0545
 2079SOL    HW1 6072   1.811   2.017   1.006  0.1258 -2.7958 -0.8338
 2079SOL    HW2 6073   1.937   1.970   1.073 -1.2933 -3.3351  1.5782
 2080SOL     OW 6074   3.247   2.556   3.894 -0.3204 -0.3365  0.2286
 2080SOL    HW1 6075   3.338   2.583   3.884 -0.0681 -1.3711 -0.5174
 2080SOL    HW2 6076   3.248   2.495   3.967 -0.5608  0.2451  0.7231
 2081SOL     OW 6077   2.434   0.730   0.694 -0.4304  0.2225 -0.4264
 2081SOL    HW1 6078   2.476   0.772   0.619 -1.1778  1.7522 -0.0227
 2081SOL    HW2 6079   2.356   0.782   0.711 -0.5989 -0.4541  1.0478
 2082SOL     OW 6080   2.452   1.573   2.596 -0.2857 -0.3305 -0.4541
 2082SOL    HW1 6081   2.367   1.543   2.628 -1.7743  1.1591 -2.7307
 2082SOL    HW2 6082   2.470   1.518   2.520  0.8271 -0.6301  0.0016
 2083SOL     OW 6083   1.016   2.974   2.201 -0.5155  0.1821  0.0074
 2083SOL    HW1 6084   0.927   2.977   2.165 -0.3008  1.5704 -0.4655
 2083SOL    HW2 6085   1.004   2.959   2.295 -1.3970  2.6794  0.3595
 2084SOL     OW 6086   3.724   3.605   2.868 -0.1792 -0.4516 -0.1282
 2084SOL    HW1 6087   3.708   3.545   2.795  0.0657 -1.7213  0.8307
 2084SOL    HW2 6088   3.779   3.674   2.830 -1.1993 -0.3429 -1.4632
 2085SOL     OW 6089   3.442   0.926   3.781 -0.3454 -0.1568 -0.4486
 2085SOL    HW1 6090   3.451   0.831   3.788 -1.0233 -0.1628  0.4612
 2085SOL    HW2 6091   3.518   0.961   3.828 -1.2167 -0.2479  1.0729
 2086SOL     OW 6092   3.299   3.184   3.889 -0.4523  0.4456 -0.2523
 2086SOL    HW1 6093   3.236   3.187   3.817 -0.1903  0.1071 -0.4940
 2086SOL    HW2 6094   3.358   3.112   3.867 -1.7353 -1.2023  1.4406
 2087SOL     OW 6095   2.971   2.213   1.016 -0.1657 -0.3281  0.0566
 2087SOL    HW1 6096   2.983   2.281   0.950  0.8283 -0.0641  0.4964
 2087SOL    HW2 6097   2.917   2.147   0.973  1.4775 -0.7470 -1.4740
 2088SOL     OW 6098   3.859   1.141   0.493  0.0677 -0.0300 -0.7481
 2088SOL    HW1 6099   3.950   1.162   0.472  0.0704  0.7163 -0.0529
 2088SOL    HW2 6100   3.845   1.054   0.455  0.7857  0.2358 -1.6703
 2089SOL     OW 6101   0.137   2.227   3.630 -0.4710  0.8847  0.3181
 2089SOL    HW1 6102   0.110   2.272   3.710 -0.5140  0.3112  0.6287
 2089SOL    HW2 6103   0.200   2.287   3.590 -2.6203  2.5693 -0.7758
 2090SOL     OW 6104   0.692   1.564   0.134  0.3390  0.0129  0.0504
 2090SOL    HW1 6105   0.772   1.615   0.149  0.2892  0.2105 -0.3467
 2090SOL    HW2 6106   0.713   1.509   0.059  0.1954 -0.1355  0.1196
 2091SOL     OW 6107   1.464   3.838   3.879 -1.0018  0.1533  0.5040
 2091SOL    HW1 6108   1.472   3.909   3.942  2.2520  1.0092 -0.6545
 2091SOL    HW2 6109   1.428   3.880   3.801 -0.6558  0.1950  0.3611
 2092SOL     OW 6110   3.217   0.910   0.546 -0.1907  0.1330  0.3043
 2092SOL    HW1 6111   3.168   0.868   0.617  0.4792 -1.0553  0.0823
 2092SOL    HW2 6112   3.165   0.895   0.468 -0.3208  0.3704  0.3450
 2093SOL     OW 6113   2.067   0.575   1.631  0.4779 -0.2890 -0.0268
 2093SOL    HW1 6114   2.144   0.587   1.576  1.0331  0.3970  0.8748
 2093SOL    HW2 6115   2.080   0.489   1.672  0.0069 -0.8525 -1.0245
 2094SOL     OW 6116   2.510   1.853   2.050 -0.4194 -0.2611  0.6013
 2094SOL    HW1 6117   2.426   1.824   2.015  0.1701 -1.7425  0.3437
 2094SOL    HW2 6118   2.486   1.917   2.117 -1.8617 -1.6286  1.4931
 2095SOL     OW 6119   0.999   1.797   1.499  0.4294 -0.5426  0.3363
 2095SOL    HW1 6120   1.082   1.819   1.456 -0.5802  1.5141 -0.7762
 2095SOL    HW2 6121   0.951   1.748   1.433  0.7049 -1.6612  0.9509
 2096SOL     OW 6122   2.839   1.037   3.756 -0.3040  0.0794  0.2011
 2096SOL    HW1 6123   2.911   1.008   3.700 -0.4932  0.4891 -0.2671
 2096SOL    HW2 6124   2.865   1.125   3.784 -1.2423  0.8233 -1.1308
 2097SOL     OW 6125   4.011   1.323   2.344 -0.0187 -0.2673 -0.1310
 2097SOL    HW1 6126   4.038   1.237   2.376 -0.2141 -0.5959 -0.8291
 2097SOL    HW2 6127   4.075   1.344   2.276 -1.5913 -1.1373 -1.9323
 2098SOL     OW 6128   2.741   1.673   2.388 -0.1600  0.1345 -0.2050
 2098SOL    HW1 6129   2.753   1.765   2.414  1.5917 -0.5259  1.5057
 2098SOL    HW2 6130   2.830   1.639   2.380 -0.7929 -1.3650 -1.0924
 2099SOL     OW 6131   1.407   2.742   2.328 -0.3509  0.5178 -0.1523
 2099SOL    HW1 6132   1.334   2.714   2.271  0.2214  1.6133 -1.4779
 2099SOL    HW2 6133   1.364   2.783   2.403 -1.1281 -0.9767  0.2670
 2100SOL     OW 6134   1.722   0.450   0.352 -0.3413 -0.4465 -0.0007
 2100SOL    HW1 6135   1.692   0.435   0.442 -1.5110 -1.4488 -0.5253
 2100SOL    HW2 6136   1.778   0.527   0.358 -0.8535 -0.1509  1.5022
 2101SOL     OW 6137   1.944   0.222   0.077  1.0441  0.6473 -0.3099
 2101SOL    HW1 6138   1.855   0.245   0.106  1.2449  0.4989  0.4411
 2101SOL    HW2 6139   1.931   0.177  -0.007  0.3120 -0.3759  0.3278
 2102SOL     OW 6140   4.061   0.344   3.342 -0.8369 -0.0415  0.0348
 2102SOL    HW1 6141   4.059   0.393   3.260  0.2093  1.4104  0.8300
 2102SOL    HW2 6142   4.008   0.395   3.403 -0.6040 -0.4873  0.5897
 2103SOL     OW 6143   2.935   0.509   0.841 -0.2202 -0.3190 -0.1997
 2103SOL    HW1 6144   2.913   0.598   0.815  2.7755  0.2279 -1.2806
 2103SOL    HW2 6145   2.938   0.460   0.758 -0.7941 -1.2035  0.2773
 2104SOL     OW 6146   3.410   1.937   2.688  0.6054 -0.0039  0.2855
 2104SOL    HW1 6147   3.339   1.954   2.626  1.4586  1.6025 -0.3139
 2104SOL    HW2 6148   3.484   1.913   2.632  0.6342 -1.4176  0.8874
 2105SOL     OW 6149   1.210   3.948   0.092 -0.2416  0.1990 -0.1869
 2105SOL    HW1 6150   1.131   3.914   0.050  0.2801 -0.5872 -0.5692
 2105SOL    HW2 6151   1.229   3.884   0.161  1.2721 -0.8526 -1.5048
 2106SOL     OW 6152   3.694   3.727   1.666 -0.0608 -1.0866 -0.4992
 2106SOL    HW1 6153   3.634   3.664   1.627 -0.3700 -1.3134  0.3326
 2106SOL    HW2 6154   3.639   3.803   1.687  0.6929  0.5386 -3.7279
 2107SOL     OW 6155   3.497   1.162   0.434  0.4134 -0.4938 -0.0039
 2107SOL    HW1 6156   3.552   1.231   0.472  1.3104 -0.7845 -0.7208
 2107SOL    HW2 6157   3.510   1.087   0.492  0.5322 -0.4689  0.0031
 2108SOL     OW 6158   3.683   2.284   1.207 -0.2096 -0.1706  0.5622
 2108SOL    HW1 6159   3.609   2.306   1.265 -0.6663 -1.8945  0.6864
 2108SOL    HW2 6160   3.681   2.352   1.139 -1.7125  0.0038  0.7468
 2109SOL     OW 6161   2.566   2.400   2.966 -0.2671 -0.6758 -0.5051
 2109SOL    HW1 6162   2.565   2.464   3.037  0.6553  1.1195 -2.0129
 2109SOL    HW2 6163   2.486   2.418   2.917 -0.3035 -1.0953 -0.5991
 2110SOL     OW 6164   1.561   3.340   2.899  0.5346 -0.2622  0.4748
 2110SOL    HW1 6165   1.584   3.410   2.960  1.3499  0.1619 -0.2972
 2110SOL    HW2 6166   1.466   3.338   2.900  0.5361 -0.5767  2.1042
 2111SOL     OW 6167   3.876   0.929   0.327 -0.4254  0.5712  0.0486
 2111SOL    HW1 6168   3.959   0.883   0.311  0.1521  1.6726 -0.1752
 2111SOL    HW2 6169   3.809   0.864   0.304  0.3624 -0.2112 -0.1345
 2112SOL     OW 6170   0.860   4.012   2.204 -0.2240  0.3633 -0.2525
 2112SOL    HW1 6171   0.900   4.050   2.282 -2.7154  0.7934  0.9323
 2112SOL    HW2 6172   0.932   3.971   2.157  1.4170  0.1709  2.2285
 2113SOL     OW 6173   0.511   2.206   3.964 -0.0174 -0.0220  0.2991
 2113SOL    HW1 6174   0.587   2.257   3.934  0.6796 -2.1940 -1.9350
 2113SOL    HW2 6175   0.548   2.125   3.999 -1.2160 -1.6681 -1.9412
 2114SOL     OW 6176   0.332   2.382   1.099 -0.1530 -0.3268 -0.2479
 2114SOL    HW1 6177   0.298   2.399   1.187 -0.2429 -0.0778 -0.3303
 2114SOL    HW2 6178   0.254   2.378   1.043 -0.0780 -0.2147 -0.3615
 2115SOL     OW 6179   3.004   0.317   3.199 -0.0817 -0.4286  0.7566
 2115SOL    HW1 6180   2.997   0.221   3.195  1.2151 -0.5319  0.6132
 2115SOL    HW2 6181   2.960   0.340   3.281 -3.6172 -0.7533 -0.8551
 2116SOL     OW 6182   1.295   2.137   2.884  0.3368  0.2307 -0.6325
 2116SOL    HW1 6183   1.307   2.231   2.902  0.4075 -0.1343  1.5676
 2116SOL    HW2 6184   1.384   2.103   2.876  0.3759  0.0832  0.3144
 2117SOL     OW 6185   2.026   4.033   0.432 -0.1358 -0.5591  0.0298
 2117SOL    HW1 6186   1.939   4.032   0.392 -0.0389  1.1319 -0.3321
 2117SOL    HW2 6187   2.054   3.942   0.432  0.0998 -0.6846 -4.3181
 2118SOL     OW 6188   3.756   2.730   1.867 -0.0170  0.0279  0.1561
 2118SOL    HW1 6189   3.733   2.783   1.791  0.2578 -0.1408 -0.0423
 2118SOL    HW2 6190   3.682   2.743   1.927  0.0746  0.6803  0.1383
 2119SOL     OW 6191   1.632   0.783   2.330  0.1078 -0.0973  0.0576
 2119SOL    HW1 6192   1.724   0.756   2.321 -0.9002 -5.0299  1.5732
 2119SOL    HW2 6193   1.627   0.822   2.417  0.9677  2.0363 -0.7684
 2120SOL     OW 6194   1.732   2.882   3.043  0.1102 -0.4347  1.0844
 2120SOL    HW1 6195   1.784   2.874   3.123 -0.0634  2.5917  1.6009
 2120SOL    HW2 6196   1.728   2.976   3.025 -2.6294 -0.7569 -0.6681
 2121SOL     OW 6197   0.114   2.774   1.796 -0.3162  0.0770 -0.2043
 2121SOL    HW1 6198   0.135   2.683   1.774 -1.1914 -0.7661  2.1201
 2121SOL    HW2 6199   0.161   2.826   1.731  0.9863 -1.9951 -1.0250
 2122SOL     OW 6200   3.513   3.797   2.764  0.1153  0.2538 -0.3778
 2122SOL    HW1 6201   3.478   3.714   2.732 -0.0712 -0.2035  0.9495
 2122SOL    HW2 6202   3.508   3.790   2.859 -2.6313  2.9306 -0.1934
 2123SOL     OW 6203   0.362   2.463   3.665 -0.3956  0.4601 -0.2199
 2123SOL    HW1 6204   0.311   2.543   3.650 -0.8541  0.4815  1.3145
 2123SOL    HW2 6205   0.438   2.492   3.715 -0.1711  0.0310 -0.3061
 2124SOL     OW 6206   2.783   1.232   1.431 -0.0626 -0.1348 -0.1185
 2124SOL    HW1 6207   2.771   1.254   1.524 -0.0778  0.4440 -0.2538
 2124SOL    HW2 6208   2.846   1.297   1.399 -0.2941 -0.1410 -0.5896
 2125SOL     OW 6209   1.297   0.946   2.488  0.3675 -0.3406  0.0932
 2125SOL    HW1 6210   1.297   1.001   2.567  0.6791  0.1477 -0.2407
 2125SOL    HW2 6211   1.341   0.999   2.422  0.2121 -0.7933 -0.3812
 2126SOL     OW 6212   1.430   3.448   1.652  0.2209  0.2750  0.5955
 2126SOL    HW1 6213   1.392   3.529   1.687  0.1090 -0.2836  1.8033
 2126SOL    HW2 6214   1.405   3.381   1.715  0.2022 -0.7368 -0.4616
 2127SOL     OW 6215   3.122   2.952   2.356 -0.2886 -0.2358  0.4095
 2127SOL    HW1 6216   3.158   2.996   2.279 -2.9279  0.3392 -0.6082
 2127SOL    HW2 6217   3.197   2.908   2.396  1.6946  1.7679 -0.8703
 2128SOL     OW 6218   3.423   2.151   1.372 -0.0303 -0.1828  0.6618
 2128SOL    HW1 6219   3.350   2.163   1.311 -0.5720  0.4181  1.4181
 2128SOL    HW2 6220   3.382   2.136   1.457  0.7273  0.1845  1.1057
 2129SOL     OW 6221   3.697   3.568   1.261  0.6571  0.0691  0.4545
 2129SOL    HW1 6222   3.632   3.638   1.268  0.0575 -0.3109 -0.9509
 2129SOL    HW2 6223   3.743   3.587   1.179 -1.0427 -2.3960 -1.1875
 2130SOL     OW 6224   3.795   1.075   2.566 -0.2529  0.6048 -0.4646
 2130SOL    HW1 6225   3.863   1.008   2.558  1.2216  2.2293 -3.1196
 2130SOL    HW2 6226   3.725   1.046   2.508 -0.5548  0.3499  0.0228
 2131SOL     OW 6227   1.982   3.593   3.523 -0.4042 -0.0169  0.0443
 2131SOL    HW1 6228   2.035   3.668   3.550  0.7258 -0.9432  0.5397
 2131SOL    HW2 6229   1.988   3.532   3.597 -0.7464 -0.8695 -0.6043
 2132SOL     OW 6230   0.462   3.006   0.946  0.4229 -0.0412  0.2515
 2132SOL    HW1 6231   0.454   2.915   0.917 -2.0607  0.9756 -2.7732
 2132SOL    HW2 6232   0.448   3.002   1.041  0.3184 -2.7748  0.2010
 2133SOL     OW 6233   2.713   2.335   1.726  0.3866  0.6551 -0.2228
 2133SOL    HW1 6234   2.714   2.325   1.631  0.1356  0.8101 -0.2424
 2133SOL    HW2 6235   2.622   2.358   1.747 -0.1308 -1.5994  0.2775
 2134SOL     OW 6236   4.029   3.251   2.849  0.0316  0.4319  0.6780
 2134SOL    HW1 6237   4.115   3.293   2.838  0.2470 -0.4199 -0.7381
 2134SOL    HW2 6238   4.047   3.173   2.902  0.4076 -0.5270 -0.8081
 2135SOL     OW 6239   3.869   1.227   0.192  0.7771 -0.9504 -0.4171
 2135SOL    HW1 6240   3.888   1.150   0.244  0.5435 -1.5518 -1.2034
 2135SOL    HW2 6241   3.775   1.220   0.171  0.9600 -0.9499 -1.2787
 2136SOL     OW 6242   0.919   2.553   1.911  0.1550  0.3900  0.4627
 2136SOL    HW1 6243   0.828   2.580   1.897 -0.6715 -1.6460  1.4550
 2136SOL    HW2 6244   0.946   2.597   1.992 -0.9289 -1.0777  1.6786
 2137SOL     OW 6245   0.209   2.797   2.559  0.2061 -0.0306 -0.2353
 2137SOL    HW1 6246   0.224   2.806   2.464 -1.4531  2.0070 -0.3748
 2137SOL    HW2 6247   0.216   2.887   2.592  0.5860 -0.7012  1.5762
 2138SOL     OW 6248   1.335   3.139   0.823  0.5520  0.1102  0.0600
 2138SOL    HW1 6249   1.304   3.093   0.745 -0.0356  0.8024 -0.1232
 2138SOL    HW2 6250   1.359   3.069   0.884  0.4716 -0.4354 -0.5228
 2139SOL     OW 6251   2.658   3.939   2.322  0.2967 -0.2590 -0.5981
 2139SOL    HW1 6252   2.593   3.950   2.391  0.7741  0.7872 -0.2890
 2139SOL    HW2 6253   2.631   4.002   2.254  1.3478  0.6843 -0.1696
 2140SOL     OW 6254   0.496   3.005   2.536  0.0394  0.3400  0.6758
 2140SOL    HW1 6255   0.536   2.923   2.562 -0.0373  0.3279  0.7559
 2140SOL    HW2 6256   0.569   3.058   2.504  0.3390  0.8289  2.0932
 2141SOL     OW 6257   3.337   2.083   1.622 -0.0731 -0.7528 -0.1226
 2141SOL    HW1 6258   3.415   2.028   1.613 -0.4242 -1.2398 -0.1925
 2141SOL    HW2 6259   3.269   2.023   1.653 -0.0108 -0.0139  1.5770
 2142SOL     OW 6260   1.105   0.176   0.552 -0.5244 -0.0496 -0.0903
 2142SOL    HW1 6261   1.104   0.153   0.645 -0.7835 -0.6170 -0.2253
 2142SOL    HW2 6262   1.189   0.219   0.539 -0.5838  0.2472  0.4534
 2143SOL     OW 6263   1.464   1.164   3.617 -0.2573 -0.3447 -0.5102
 2143SOL    HW1 6264   1.517   1.182   3.540 -0.2605 -1.4719 -0.7874
 2143SOL    HW2 6265   1.378   1.203   3.597  0.4592  1.6380  0.0118
 2144SOL     OW 6266   3.106   2.652   2.890 -0.5827 -0.1629  0.5436
 2144SOL    HW1 6267   3.063   2.576   2.851  0.4294 -0.7208  0.4572
 2144SOL    HW2 6268   3.035   2.712   2.911 -1.2476 -0.3113 -1.1442
 2145SOL     OW 6269   3.079   0.794   0.331  0.2165  0.5125 -1.2055
 2145SOL    HW1 6270   3.023   0.731   0.288 -0.5993 -0.0918  0.6543
 2145SOL    HW2 6271   3.020   0.862   0.363  0.1892 -0.8820  2.1153
 2146SOL     OW 6272   0.358   0.453   3.462  0.4871  0.7536  0.0950
 2146SOL    HW1 6273   0.362   0.435   3.368 -0.7856  1.4781 -0.1228
 2146SOL    HW2 6274   0.351   0.367   3.503 -0.4195  0.4880 -0.5877
 2147SOL     OW 6275   0.114   1.034   3.575  0.1527 -0.1046 -0.5525
 2147SOL    HW1 6276   0.139   1.068   3.661 -0.1547 -0.7789 -0.1831
 2147SOL    HW2 6277   0.177   0.963   3.559 -1.8508 -2.2868  0.6998
 2148SOL     OW 6278   3.140   2.211   0.438 -0.1204 -0.0031  0.2253
 2148SOL    HW1 6279   3.056   2.246   0.408  0.2215  0.3735 -0.2984
 2148SOL    HW2 6280   3.152   2.131   0.385 -1.4374 -1.6119  2.1876
 2149SOL     OW 6281   3.208   2.849   3.951  0.3248  0.3286  0.2164
 2149SOL    HW1 6282   3.181   2.872   3.862 -1.3851 -0.5832  0.4509
 2149SOL    HW2 6283   3.234   2.757   3.945 -3.2974 -0.9454  1.2212
 2150SOL     OW 6284   2.333   3.105   2.718  0.4622 -0.2824  0.3237
 2150SOL    HW1 6285   2.382   3.053   2.654 -0.4875  0.0806 -0.7372
 2150SOL    HW2 6286   2.353   3.196   2.696 -0.1234 -0.1489  0.3137
 2151SOL     OW 6287   2.624   3.810   2.945  0.0656 -0.3966 -0.0304
 2151SOL    HW1 6288   2.685   3.878   2.975  0.6177 -1.1926  0.7106
 2151SOL    HW2 6289   2.656   3.787   2.857  1.4856 -1.4828  0.7132
 2152SOL     OW 6290   2.231   1.147   0.255  0.6377 -0.0239  0.1754
 2152SOL    HW1 6291   2.193   1.216   0.201 -0.4301 -0.5442  0.2428
 2152SOL    HW2 6292   2.232   1.184   0.344 -0.0517 -0.1275  0.2325
 2153SOL     OW 6293   0.225   0.927   1.637 -0.9387  0.3044  0.2148
 2153SOL    HW1 6294   0.292   0.951   1.702  1.4124  4.1002 -3.0827
 2153SOL    HW2 6295   0.266   0.859   1.585 -0.8390  0.5367 -0.0158
 2154SOL     OW 6296   2.412   0.739   1.337  0.3038  0.4689  0.0731
 2154SOL    HW1 6297   2.459   0.744   1.420  1.4336 -0.7423 -0.4374
 2154SOL    HW2 6298   2.335   0.685   1.356  0.1243  0.8733  0.5046
 2155SOL     OW 6299   3.007   0.172   1.228 -0.0950 -0.0387  0.5485
 2155SOL    HW1 6300   2.917   0.142   1.219 -0.2554  0.6577 -0.2134
 2155SOL    HW2 6301   3.059   0.091   1.228 -0.7744 -0.5236  2.1356
 2156SOL     OW 6302   0.789   2.923   2.837  0.3239  0.3726  0.3498
 2156SOL    HW1 6303   0.735   2.854   2.798 -0.1687  0.1695  1.3438
 2156SOL    HW2 6304   0.873   2.880   2.854  0.0655  0.0353  0.8297
 2157SOL     OW 6305   2.574   2.126   1.893 -0.3804 -0.3615  0.4508
 2157SOL    HW1 6306   2.546   2.167   1.811 -0.4999  0.7900  1.0580
 2157SOL    HW2 6307   2.589   2.034   1.869 -4.9254 -1.2457  0.1072
 2158SOL     OW 6308   2.465   2.982   0.888 -0.4790 -0.3247 -0.2362
 2158SOL    HW1 6309   2.512   2.910   0.845 -1.1255 -0.0637 -1.4260
 2158SOL    HW2 6310   2.373   2.956   0.883 -0.4804 -1.2734  2.9125
 2159SOL     OW 6311   3.765   0.518   3.848  0.8825 -0.1879 -0.3715
 2159SOL    HW1 6312   3.856   0.509   3.877  0.4710 -0.0570  1.0351
 2159SOL    HW2 6313   3.716   0.535   3.928 -0.2191  1.0654 -1.2630
 2160SOL     OW 6314   1.754   1.096   2.007 -0.5884  0.0541 -0.0935
 2160SOL    HW1 6315   1.785   1.093   1.916  1.6872  1.0032  0.5859
 2160SOL    HW2 6316   1.768   1.007   2.039 -0.5882 -0.0633 -0.4078
 2161SOL     OW 6317   2.613   0.401   2.103 -0.2144 -0.5788 -0.3578
 2161SOL    HW1 6318   2.657   0.381   2.021 -0.6720 -1.6499 -0.3648
 2161SOL    HW2 6319   2.522   0.415   2.078  0.0161  1.2344 -0.2955
 2162SOL     OW 6320   3.496   2.098   3.196 -0.1404 -0.0683  0.0281
 2162SOL    HW1 6321   3.429   2.070   3.134  1.4593  0.2213 -1.9684
 2162SOL    HW2 6322   3.487   2.039   3.271 -2.1411 -0.4563 -0.4598
 2163SOL     OW 6323   0.070   0.910   1.334  0.6412 -0.1853 -0.8836
 2163SOL    HW1 6324   0.024   0.861   1.267 -0.9931  0.0905 -0.0252
 2163SOL    HW2 6325   0.016   0.900   1.413  2.1466  0.0325  0.2345
 2164SOL     OW 6326   3.449   3.627   3.392  0.3114  0.0962  0.1945
 2164SOL    HW1 6327   3.418   3.565   3.326  2.0304  0.2789 -0.8344
 2164SOL    HW2 6328   3.537   3.651   3.364  1.5244 -0.5370  3.0769
 2165SOL     OW 6329   2.731   3.141   2.874 -0.2940  0.1278 -0.2887
 2165SOL    HW1 6330   2.823   3.134   2.850 -0.6661 -1.5333 -1.4461
 2165SOL    HW2 6331   2.723   3.227   2.914  1.8882  0.0360  0.4718
 2166SOL     OW 6332   2.074   0.212   0.318 -0.4606  0.0506  0.5153
 2166SOL    HW1 6333   2.031   0.210   0.233 -1.3076 -0.3973  0.9368
 2166SOL    HW2 6334   2.086   0.120   0.341 -0.5188  0.1594  1.0022
 2167SOL     OW 6335   1.887   2.449   1.786 -0.1695 -0.5267  0.3057
 2167SOL    HW1 6336   1.793   2.428   1.786 -1.0421  2.7698  1.2655
 2167SOL    HW2 6337   1.901   2.494   1.869  1.5865  1.5917 -1.0406
 2168SOL     OW 6338   0.483   2.619   3.399  0.0558 -0.4492  0.0714
 2168SOL    HW1 6339   0.515   2.544   3.349 -0.0016  0.0255 -0.6973
 2168SOL    HW2 6340   0.551   2.635   3.465  1.4270  0.4959 -1.4740
 2169SOL     OW 6341   2.564   1.973   1.642  0.2259 -0.4846  0.1985
 2169SOL    HW1 6342   2.555   1.971   1.547  0.2478 -0.2239  0.1908
 2169SOL    HW2 6343   2.524   1.891   1.672  0.8746 -0.9108 -0.0877
 2170SOL     OW 6344   0.466   3.772   1.608 -0.7487 -0.5047 -0.2776
 2170SOL    HW1 6345   0.405   3.766   1.534 -0.3514  1.4843 -0.8426
 2170SOL    HW2 6346   0.500   3.862   1.603  1.1454 -1.1086  0.8768
 2171SOL     OW 6347   1.075   0.973   3.516 -0.1424  0.3416 -0.1982
 2171SOL    HW1 6348   1.079   1.037   3.587  0.2521 -0.0637  0.1463
 2171SOL    HW2 6349   1.022   0.902   3.551 -0.1226  0.2325 -0.3876
 2172SOL     OW 6350   2.485   1.220   0.910  0.5396 -0.5614 -0.0497
 2172SOL    HW1 6351   2.507   1.127   0.899  2.2969 -0.2917  0.8981
 2172SOL    HW2 6352   2.398   1.219   0.951 -0.5492 -1.7054 -2.2047
 2173SOL     OW 6353   3.064   2.675   1.888  0.3376 -0.2606  0.0180
 2173SOL    HW1 6354   3.141   2.728   1.865  0.4851  0.0121  1.0761
 2173SOL    HW2 6355   3.050   2.619   1.812  0.0456  1.4318 -1.2267
 2174SOL     OW 6356   1.525   3.312   2.533  0.0414  0.3142  0.3962
 2174SOL    HW1 6357   1.587   3.367   2.581  0.1161 -0.2919  0.9984
 2174SOL    HW2 6358   1.439   3.339   2.565 -0.0758  1.6224 -0.9186
 2175SOL     OW 6359   1.813   2.583   3.036  0.0624  0.3979  0.1971
 2175SOL    HW1 6360   1.860   2.626   3.107 -0.3287  0.6664  0.2910
 2175SOL    HW2 6361   1.880   2.530   2.992 -0.0972 -1.4305  2.0280
 2176SOL     OW 6362   3.506   3.113   2.805 -0.0364  0.8256 -0.1653
 2176SOL    HW1 6363   3.579   3.056   2.780 -1.1545 -0.6385 -0.2596
 2176SOL    HW2 6364   3.530   3.147   2.891  0.0334 -0.9966  0.5783
 2177SOL     OW 6365   0.420   3.728   2.589  0.2447  0.3688  0.8381
 2177SOL    HW1 6366   0.491   3.709   2.527  0.3354  1.4438  0.5839
 2177SOL    HW2 6367   0.392   3.643   2.620 -2.0790 -0.6179 -3.1968
 2178SOL     OW 6368   0.221   4.048   1.571  0.5490  0.6054  0.2320
 2178SOL    HW1 6369   0.136   4.080   1.541 -0.5358 -1.5382  0.7859
 2178SOL    HW2 6370   0.236   3.968   1.521  3.2050  1.8737 -1.2168
 2179SOL     OW 6371   3.077   2.773   3.401 -0.0852  0.4174 -0.9673
 2179SOL    HW1 6372   3.116   2.731   3.477  2.2679  0.0560 -2.2735
 2179SOL    HW2 6373   3.124   2.857   3.393 -1.8777  1.4934 -0.7469
 2180SOL     OW 6374   4.001   1.211   1.580  0.3173 -0.0178  0.0574
 2180SOL    HW1 6375   4.040   1.139   1.629 -0.1691 -0.6425 -0.4605
 2180SOL    HW2 6376   3.936   1.248   1.640  0.9465  0.3455  0.5245
 2181SOL     OW 6377   3.806   2.956   2.290 -0.1148 -0.0620 -0.0954
 2181SOL    HW1 6378   3.851   2.941   2.373  1.1192  0.2153 -0.7033
 2181SOL    HW2 6379   3.716   2.978   2.316  0.0550 -0.6941  1.1256
 2182SOL     OW 6380   3.962   2.663   0.947 -0.3191  0.5105  0.1021
 2182SOL    HW1 6381   4.022   2.711   1.004 -0.2467 -0.5317  0.9516
 2182SOL    HW2 6382   3.980   2.696   0.859 -0.4573  2.1848  0.6647
 2183SOL     OW 6383   1.863   3.603   0.532  0.0672 -0.4626 -0.3077
 2183SOL    HW1 6384   1.769   3.624   0.525  0.4514  0.8261 -3.1321
 2183SOL    HW2 6385   1.868   3.511   0.509 -0.5775 -0.8861  1.1080
 2184SOL     OW 6386   3.822   2.903   3.066 -0.0824  0.4472 -0.0342
 2184SOL    HW1 6387   3.767   2.974   3.098 -0.1715  1.4000 -2.1068
 2184SOL    HW2 6388   3.901   2.947   3.033  0.6434 -0.6027  0.2660
 2185SOL     OW 6389   1.031   0.168   0.156  0.6036 -0.0357 -0.6337
 2185SOL    HW1 6390   0.998   0.112   0.227  2.1593 -0.7489 -0.4124
 2185SOL    HW2 6391   1.050   0.251   0.199  1.7964 -0.5481 -0.0973
 2186SOL     OW 6392   1.022   4.061   2.467 -0.4859 -0.1057 -0.1727
 2186SOL    HW1 6393   1.056   4.143   2.503  0.4413 -0.0523 -1.2345
 2186SOL    HW2 6394   0.992   4.012   2.544  1.6344  0.0053  0.7876
 2187SOL     OW 6395   0.217   0.484   2.672  0.3617  0.3854  0.1737
 2187SOL    HW1 6396   0.253   0.416   2.615  1.0814 -0.5003  1.6103
 2187SOL    HW2 6397   0.132   0.449   2.700  1.3406 -0.6764  2.0507
 2188SOL     OW 6398   2.119   2.814   3.938 -0.0037 -0.0733  0.7311
 2188SOL    HW1 6399   2.095   2.739   3.885  1.9697  0.2194 -0.7063
 2188SOL    HW2 6400   2.207   2.794   3.970  0.8531  1.8630 -0.2582
 2189SOL     OW 6401   3.434   3.900   2.433  0.2760  0.7104 -0.7356
 2189SOL    HW1 6402   3.492   3.951   2.490 -1.2141  0.2923  1.2730
 2189SOL    HW2 6403   3.354   3.953   2.428 -0.0734  0.1267 -1.4084
 2190SOL     OW 6404   2.910   2.524   3.071  0.6710  0.2368 -0.1059
 2190SOL    HW1 6405   2.890   2.591   3.007  0.7224 -0.8679 -1.3162
 2190SOL    HW2 6406   2.887   2.441   3.029  2.9553 -0.7138  0.3360
 2191SOL     OW 6407   3.723   1.774   0.926  0.4204  0.0105 -0.0256
 2191SOL    HW1 6408   3.787   1.736   0.986 -2.4361 -1.9412  2.0332
 2191SOL    HW2 6409   3.762   1.857   0.899  1.8272  1.2728  4.8936
 2192SOL     OW 6410   3.256   1.361   0.524  0.0372 -0.3432  0.3484
 2192SOL    HW1 6411   3.300   1.281   0.494  0.1781  0.4083 -1.5941
 2192SOL    HW2 6412   3.321   1.430   0.509 -0.4970  0.2866  0.9212
 2193SOL     OW 6413   1.246   1.302   3.491  0.2410 -0.7028 -0.3973
 2193SOL    HW1 6414   1.161   1.261   3.509 -0.7407  2.0120  1.9369
 2193SOL    HW2 6415   1.230   1.358   3.415  0.3173 -1.0650 -0.6883
 2194SOL     OW 6416   0.824   2.383   3.276  0.4503 -0.0266 -0.0255
 2194SOL    HW1 6417   0.837   2.475   3.299 -1.0728  0.0357  0.7292
 2194SOL    HW2 6418   0.895   2.337   3.320  1.1091  0.7751 -0.2452
 2195SOL     OW 6419   0.060   3.120   1.732  0.0644 -0.2183 -0.6276
 2195SOL    HW1 6420  -0.033   3.141   1.744 -0.4078 -0.0544 -3.8735
 2195SOL    HW2 6421   0.060   3.030   1.698  1.3358 -1.0453  1.3599
 2196SOL     OW 6422   0.682   1.418   2.751  0.3529  0.4064  0.2498
 2196SOL    HW1 6423   0.687   1.483   2.821  0.7681 -1.1395  1.7316
 2196SOL    HW2 6424   0.767   1.374   2.753  0.5184  0.5738 -1.5158
 2197SOL     OW 6425   3.696   1.991   0.017  0.0924 -0.3913 -0.1031
 2197SOL    HW1 6426   3.636   2.057   0.052  1.1462  0.3186  0.4126
 2197SOL    HW2 6427   3.658   1.907   0.044  0.1185  0.0920  1.5480
 2198SOL     OW 6428   4.021   0.758   3.560  0.0474  0.2047  0.3798
 2198SOL    HW1 6429   4.113   0.730   3.553  0.1124  0.2579  1.4301
 2198SOL    HW2 6430   3.999   0.789   3.472  1.1738  0.6164  0.2297
 2199SOL     OW 6431   1.587   0.809   3.963 -0.4280 -0.6361  0.3515
 2199SOL    HW1 6432   1.614   0.821   3.872  2.8104 -0.3167  1.2251
 2199SOL    HW2 6433   1.614   0.890   4.007  2.4378 -2.5131  2.3875
 2200SOL     OW 6434   0.995   3.316   3.283  0.0413 -0.0080 -0.8008
 2200SOL    HW1 6435   1.045   3.392   3.254  1.0255 -0.6378 -0.8118
 2200SOL    HW2 6436   1.015   3.249   3.217  1.0858 -0.9877  0.4574
 2201SOL     OW 6437   1.724   2.245   0.129  0.7448  0.5793 -0.1700
 2201SOL    HW1 6438   1.726   2.223   0.036  0.1240 -0.8989  0.1206
 2201SOL    HW2 6439   1.708   2.161   0.173  0.5725  1.3058  1.2387
 2202SOL     OW 6440   3.299   3.497   0.135 -0.4308 -0.4286 -0.5296
 2202SOL    HW1 6441   3.341   3.410   0.135 -0.4314 -0.4524  0.8222
 2202SOL    HW2 6442   3.344   3.545   0.066  1.0487 -0.8366  0.1004
 2203SOL     OW 6443   0.431   2.438   1.665 -0.0106  0.2874  0.1681
 2203SOL    HW1 6444   0.437   2.519   1.716 -0.6774 -0.0547  0.8069
 2203SOL    HW2 6445   0.494   2.379   1.706 -0.1032  0.2172  0.2094
 2204SOL     OW 6446   2.066   1.359   1.905 -0.2900 -0.1711  0.2241
 2204SOL    HW1 6447   2.048   1.265   1.911  0.8754 -0.4095  0.1293
 2204SOL    HW2 6448   2.108   1.381   1.988  1.6954 -0.2637 -0.7104
 2205SOL     OW 6449   3.358   0.003   0.477 -0.0260 -0.1088 -0.7720
 2205SOL    HW1 6450   3.446   0.018   0.443  1.3201  0.2314  2.4659
 2205SOL    HW2 6451   3.330   0.088   0.512 -1.3747 -0.3714 -1.1253
 2206SOL     OW 6452   2.403   3.547   1.255 -0.1196 -0.3452 -0.1907
 2206SOL    HW1 6453   2.486   3.502   1.241  0.0774 -0.8744  2.1519
 2206SOL    HW2 6454   2.422   3.639   1.235 -0.7647 -1.0955 -5.9254
 2207SOL     OW 6455   3.159   2.483   1.090 -0.3161  0.2705  0.5333
 2207SOL    HW1 6456   3.185   2.565   1.047  1.8149 -0.0367  1.1356
 2207SOL    HW2 6457   3.216   2.417   1.051 -1.5664 -0.8259  0.5355
 2208SOL     OW 6458   2.545   4.026   3.711 -0.0256 -0.0307  0.0569
 2208SOL    HW1 6459   2.463   4.062   3.678  0.6114  2.4729  0.9675
 2208SOL    HW2 6460   2.550   4.055   3.802  2.6138  1.4345 -0.4495
 2209SOL     OW 6461   0.783   3.650   0.470 -0.0212 -0.3705 -0.0159
 2209SOL    HW1 6462   0.740   3.655   0.555 -2.2674 -1.3020 -1.0256
 2209SOL    HW2 6463   0.792   3.741   0.442 -0.7055 -0.1278  0.5342
 2210SOL     OW 6464   3.087   1.917   3.762 -0.3531  0.6193  0.0463
 2210SOL    HW1 6465   3.051   1.885   3.679 -0.8137  0.4502  0.3037
 2210SOL    HW2 6466   3.167   1.963   3.738  0.2560 -0.5919 -0.3553
 2211SOL     OW 6467   1.824   3.974   2.966  0.8125  0.0537 -0.1750
 2211SOL    HW1 6468   1.823   3.934   2.879  1.8178 -1.8058  0.6121
 2211SOL    HW2 6469   1.831   3.900   3.026  1.5281  1.3588  1.4261
 2212SOL     OW 6470   0.779   3.616   1.008 -0.3357  0.4195 -0.3809
 2212SOL    HW1 6471   0.854   3.622   0.949 -1.4468 -2.6639 -2.3722
 2212SOL    HW2 6472   0.809   3.562   1.081 -0.4580 -0.3643 -0.9070
 2213SOL     OW 6473   1.663   0.146   2.781  0.1186  0.1081  0.2234
 2213SOL    HW1 6474   1.679   0.075   2.843 -0.1631  0.6573  0.9376
 2213SOL    HW2 6475   1.660   0.103   2.695 -0.9528 -0.8691  0.7250
 2214SOL     OW 6476   1.497   2.786   1.326  0.3587  0.7530 -0.2071
 2214SOL    HW1 6477   1.551   2.805   1.403  1.4267  0.7863 -0.9390
 2214SOL    HW2 6478   1.491   2.691   1.324 -0.8605  0.7896  0.6936
 2215SOL     OW 6479   1.039   3.733   1.458  0.4666  0.1785 -0.2977
 2215SOL    HW1 6480   1.062   3.642   1.477  0.2076  0.1006 -0.3627
 2215SOL    HW2 6481   0.945   3.732   1.442  0.9036 -0.0929 -3.4699
 2216SOL     OW 6482   1.768   1.802   0.667  0.0720 -0.2866 -0.2786
 2216SOL    HW1 6483   1.843   1.860   0.677  0.0493 -0.5683  1.9263
 2216SOL    HW2 6484   1.806   1.719   0.638  0.5817 -0.3115  0.4374
 2217SOL     OW 6485   1.042   0.464   3.158  0.1179  0.0670 -0.0749
 2217SOL    HW1 6486   1.009   0.547   3.123  0.1898  0.0608 -0.1563
 2217SOL    HW2 6487   1.131   0.484   3.188 -0.2048  0.2612  0.7953
 2218SOL     OW 6488   0.284   0.876   3.940  0.3785 -0.1477  0.1439
 2218SOL    HW1 6489   0.356   0.931   3.968  1.0181 -0.6042 -0.5603
 2218SOL    HW2 6490   0.239   0.927   3.872  0.9796 -0.4809 -0.5185
 2219SOL     OW 6491   4.013   4.069   1.469  1.1542 -0.2706 -0.2513
 2219SOL    HW1 6492   3.962   3.988   1.469  0.9727 -0.1704  1.0260
 2219SOL    HW2 6493   4.063   4.066   1.387 -0.4039 -0.6803 -1.2179
 2220SOL     OW 6494   0.530   1.795   0.185  0.6001 -0.3941  0.3704
 2220SOL    HW1 6495   0.554   1.810   0.277 -0.0257  0.1062  0.4590
 2220SOL    HW2 6496   0.590   1.727   0.155  0.6639 -0.7132  1.2116
 2221SOL     OW 6497   0.196   0.553   2.232  0.1148  0.7163 -0.2038
 2221SOL    HW1 6498   0.211   0.510   2.316 -2.4028 -0.1915 -0.1399
 2221SOL    HW2 6499   0.176   0.482   2.171  1.0845  1.4303 -1.3989
 2222SOL     OW 6500   4.057   3.206   3.201  0.2714 -0.1097  0.0054
 2222SOL    HW1 6501   4.105   3.265   3.143 -0.9961  0.5383 -0.3873
 2222SOL    HW2 6502   4.086   3.230   3.289 -2.1848  3.0463  0.1184
 2223SOL     OW 6503   0.999   0.252   2.683  0.7861  0.4159  0.3431
 2223SOL    HW1 6504   0.934   0.318   2.656 -0.3024 -0.8703 -0.2806
 2223SOL    HW2 6505   0.985   0.243   2.778 -1.1134 -0.9787  0.0013
 2224SOL     OW 6506   0.206   1.507   1.018  0.4558  0.6959  0.7390
 2224SOL    HW1 6507   0.139   1.512   1.086  0.2224 -2.8729  0.9181
 2224SOL    HW2 6508   0.157   1.484   0.939  1.3339 -0.9442  0.6539
 2225SOL     OW 6509   0.842   0.272   3.905  0.0537 -0.3910  0.0087
 2225SOL    HW1 6510   0.867   0.254   3.814 -0.0223  1.3411 -0.3976
 2225SOL    HW2 6511   0.748   0.288   3.900  0.0152 -0.4814  0.4375
 2226SOL     OW 6512   1.784   1.567   3.515  0.0130  0.2798  0.6503
 2226SOL    HW1 6513   1.725   1.625   3.563 -0.8903 -0.8170  0.9161
 2226SOL    HW2 6514   1.871   1.588   3.548 -0.5416 -0.0967  2.4085
 2227SOL     OW 6515   3.053   2.073   3.106  0.2998 -0.3468  0.5778
 2227SOL    HW1 6516   3.112   2.128   3.158 -0.2908 -0.3482  1.2620
 2227SOL    HW2 6517   2.992   2.134   3.065  0.7498 -0.3469 -0.1139
 2228SOL     OW 6518   0.011   0.773   0.241 -1.0252  0.3511  0.0849
 2228SOL    HW1 6519   0.038   0.767   0.150 -0.9147 -2.7865  0.2181
 2228SOL    HW2 6520   0.090   0.803   0.287 -0.6051  0.3943 -0.6504
 2229SOL     OW 6521   0.344   1.709   2.899 -0.3432  0.1438 -0.2406
 2229SOL    HW1 6522   0.413   1.765   2.933 -0.4298  0.8415 -1.1800
 2229SOL    HW2 6523   0.385   1.663   2.825 -0.4516 -0.5651  0.1344
 2230SOL     OW 6524   0.386   1.551   1.918 -0.1228  0.1474  0.0722
 2230SOL    HW1 6525   0.392   1.596   2.003 -0.9511 -0.0456  0.2408
 2230SOL    HW2 6526   0.402   1.620   1.854  0.4930  0.3006  0.3787
 2231SOL     OW 6527   1.662   1.921   1.813 -0.1345  0.7122  0.0861
 2231SOL    HW1 6528   1.754   1.899   1.831 -0.2133  0.5000  0.2413
 2231SOL    HW2 6529   1.612   1.855   1.861 -0.3624  0.5204 -0.4044
 2232SOL     OW 6530   3.909   0.145   3.169  0.3646  0.2110 -0.4729
 2232SOL    HW1 6531   3.974   0.185   3.226  0.4785  0.1987 -0.5955
 2232SOL    HW2 6532   3.825   0.163   3.212  0.4066  0.6522 -0.5704
 2233SOL     OW 6533   3.926   1.881   3.504 -0.6441 -0.3747 -0.0847
 2233SOL    HW1 6534   3.840   1.911   3.476 -0.6834  0.6835  1.0712
 2233SOL    HW2 6535   3.987   1.942   3.461 -0.4964 -0.7546 -0.4239
 2234SOL     OW 6536   0.681   0.865   0.112 -0.3512 -0.4916  0.2773
 2234SOL    HW1 6537   0.742   0.938   0.122 -0.4421 -0.5720  1.6244
 2234SOL    HW2 6538   0.596   0.906   0.097 -0.7995 -0.1764  3.1079
 2235SOL     OW 6539   2.079   1.382   3.747 -0.4602 -0.6256 -0.2011
 2235SOL    HW1 6540   2.051   1.462   3.703 -1.7354 -0.4528  0.8734
 2235SOL    HW2 6541   2.022   1.314   3.712 -1.6380 -0.4482  1.2962
 2236SOL     OW 6542   2.643   3.207   0.857  0.1106  0.4885  0.1221
 2236SOL    HW1 6543   2.704   3.150   0.810  0.1346  0.0994  0.6202
 2236SOL    HW2 6544   2.561   3.157   0.860 -0.4000  1.2025 -0.9683
 2237SOL     OW 6545   1.413   1.756   3.135 -0.1596 -0.1840 -0.1702
 2237SOL    HW1 6546   1.504   1.779   3.114  0.1233 -1.4513 -0.3963
 2237SOL    HW2 6547   1.366   1.768   3.052 -0.3975  1.3136  0.1509
 2238SOL     OW 6548   2.018   0.305   0.912  0.4125  0.0358 -0.2309
 2238SOL    HW1 6549   1.965   0.239   0.956  0.7436 -2.0063 -2.6385
 2238SOL    HW2 6550   2.070   0.255   0.848  0.1387  2.6713 -2.7238
 2239SOL     OW 6551   1.434   1.475   0.150 -0.1138  0.3178 -0.6422
 2239SOL    HW1 6552   1.528   1.476   0.132 -0.1484 -0.6138 -0.9215
 2239SOL    HW2 6553   1.403   1.559   0.116  0.6784  0.8370 -0.1434
 2240SOL     OW 6554   2.856   0.358   3.426  0.4446 -0.2172  0.0945
 2240SOL    HW1 6555   2.831   0.320   3.511 -2.1935 -0.7549 -0.8169
 2240SOL    HW2 6556   2.827   0.449   3.432 -0.5150 -0.4714 -0.4802
 2241SOL     OW 6557   3.661   2.903   1.667 -1.0929 -0.1811  0.0409
 2241SOL    HW1 6558   3.739   2.924   1.614 -1.3562 -1.1514 -0.7485
 2241SOL    HW2 6559   3.634   2.988   1.704  1.3696 -0.0513  1.8186
 2242SOL     OW 6560   0.865   1.487   3.800  0.1097  0.1571  0.2860
 2242SOL    HW1 6561   0.807   1.437   3.743 -0.3862  0.8660  0.1587
 2242SOL    HW2 6562   0.861   1.577   3.767  2.7646 -0.0870 -0.9466
 2243SOL     OW 6563   2.819   0.220   3.651 -0.4962 -0.5807 -0.4564
 2243SOL    HW1 6564   2.746   0.199   3.709 -0.0001  0.2738  0.4966
 2243SOL    HW2 6565   2.887   0.254   3.708  0.1037  0.0353 -1.4985
 2244SOL     OW 6566   3.525   1.153   3.350  0.3621 -0.2497 -0.1562
 2244SOL    HW1 6567   3.485   1.182   3.432  0.0940 -1.2957  0.0893
 2244SOL    HW2 6568   3.573   1.074   3.373  0.9239 -0.1213 -0.8603
 2245SOL     OW 6569   0.777   0.324   0.305 -0.1874 -0.2112  0.1334
 2245SOL    HW1 6570   0.693   0.368   0.314 -0.4333 -0.1802 -1.8650
 2245SOL    HW2 6571   0.756   0.240   0.265  0.7626 -0.0038 -0.8461
 2246SOL     OW 6572   1.767   2.414   3.757  0.8247  0.4424 -0.3728
 2246SOL    HW1 6573   1.764   2.470   3.834  1.0928  0.7530 -0.5837
 2246SOL    HW2 6574   1.683   2.369   3.757  0.4053  1.2031 -0.4656
 2247SOL     OW 6575   2.775   2.893   2.226 -0.3229 -0.0128  0.2368
 2247SOL    HW1 6576   2.775   2.827   2.157 -0.8080  1.0704 -0.8420
 2247SOL    HW2 6577   2.737   2.971   2.185 -0.3312  0.7638  1.6395
 2248SOL     OW 6578   3.524   2.414   3.973 -0.2325 -0.0134  0.4585
 2248SOL    HW1 6579   3.567   2.352   3.914 -1.0158  0.7083 -0.9143
 2248SOL    HW2 6580   3.586   2.424   4.046  0.8701 -0.7567 -0.3403
 2249SOL     OW 6581   0.855   2.508   0.928 -0.2149 -0.3479  0.2736
 2249SOL    HW1 6582   0.776   2.457   0.941  0.4077 -2.0488 -2.0731
 2249SOL    HW2 6583   0.847   2.544   0.840  1.6488 -0.7138 -0.0963
 2250SOL     OW 6584   2.971   2.184   2.814 -0.0393  0.2784 -0.3026
 2250SOL    HW1 6585   2.951   2.091   2.806 -1.1977  0.5108 -0.2841
 2250SOL    HW2 6586   2.908   2.217   2.878  1.5456  0.7294  1.0889
 2251SOL     OW 6587   2.600   3.011   0.303 -0.4241  0.3551  0.7049
 2251SOL    HW1 6588   2.615   2.986   0.212 -1.2253 -1.7221  1.0884
 2251SOL    HW2 6589   2.672   2.971   0.351 -0.1999  1.1521  1.0540
 2252SOL     OW 6590   2.434   3.417   1.971  0.5216 -0.3522  0.0466
 2252SOL    HW1 6591   2.450   3.511   1.983  1.1229 -0.2804 -1.1731
 2252SOL    HW2 6592   2.463   3.377   2.053 -1.3203  0.6680  1.2657
 2253SOL     OW 6593   2.866   2.739   0.009  0.8668  0.1997  0.0238
 2253SOL    HW1 6594   2.931   2.682   0.051  0.7068  1.2678  1.8039
 2253SOL    HW2 6595   2.902   2.756  -0.078  2.1456 -0.5777  0.4163
 2254SOL     OW 6596   2.374   1.358   3.124  0.2112  0.1328  0.4228
 2254SOL    HW1 6597   2.468   1.374   3.110  0.0737 -0.7554 -1.9753
 2254SOL    HW2 6598   2.332   1.438   3.095  0.1516 -0.0539 -0.0095
 2255SOL     OW 6599   3.611   3.199   3.634  0.5419 -0.4249  0.1052
 2255SOL    HW1 6600   3.520   3.225   3.619  0.7693  0.1297 -0.3428
 2255SOL    HW2 6601   3.662   3.275   3.608  1.1920 -1.1514 -0.8023
 2256SOL     OW 6602   2.458   2.161   0.518 -0.4967 -0.3864  0.0780
 2256SOL    HW1 6603   2.480   2.215   0.442  1.3791  1.2511  1.6776
 2256SOL    HW2 6604   2.377   2.199   0.552  0.8225  1.6111  1.2140
 2257SOL     OW 6605   0.484   3.875   3.775  0.0351 -0.1422  0.8935
 2257SOL    HW1 6606   0.424   3.811   3.736 -0.4018 -0.1214  1.5252
 2257SOL    HW2 6607   0.563   3.869   3.722 -1.0608  0.9535 -0.9845
 2258SOL     OW 6608   0.822   1.634   2.304  0.0182  0.0871  0.1585
 2258SOL    HW1 6609   0.779   1.699   2.249  0.1005  0.1409  0.1580
 2258SOL    HW2 6610   0.756   1.609   2.368 -0.9452 -1.7957 -1.4358
 2259SOL     OW 6611   3.116   0.827   3.339 -0.4924  0.3149  0.5541
 2259SOL    HW1 6612   3.095   0.917   3.362  0.6716  0.6675  0.3149
 2259SOL    HW2 6613   3.062   0.807   3.263 -0.4350  0.9523  0.3491
 2260SOL     OW 6614   0.430   2.791   3.055  0.4094  0.2314  0.0383
 2260SOL    HW1 6615   0.389   2.733   2.992 -1.2256 -0.5246  1.7172
 2260SOL    HW2 6616   0.419   2.879   3.018 -0.7438 -0.1771 -0.6101
 2261SOL     OW 6617   0.352   0.500   0.241  0.3834  0.2358 -0.6534
 2261SOL    HW1 6618   0.377   0.538   0.157 -2.9850  1.0321 -1.4505
 2261SOL    HW2 6619   0.293   0.428   0.218  0.2960 -0.2909  1.0359
 2262SOL     OW 6620   2.511   0.453   3.507  0.0323 -0.2827 -0.3133
 2262SOL    HW1 6621   2.591   0.475   3.556 -1.4461 -1.9368  3.2229
 2262SOL    HW2 6622   2.529   0.368   3.468  0.0702 -0.5842  0.3527
 2263SOL     OW 6623   3.675   0.521   1.224  0.0632 -0.0337 -0.1410
 2263SOL    HW1 6624   3.701   0.574   1.149 -0.1875 -1.5744 -1.3772
 2263SOL    HW2 6625   3.646   0.438   1.186  0.6779 -1.1654  1.7161
 2264SOL     OW 6626   1.450   3.137   0.330 -0.1863  0.3409  0.1137
 2264SOL    HW1 6627   1.523   3.117   0.272 -1.3691 -0.7490 -1.0627
 2264SOL    HW2 6628   1.475   3.098   0.414 -0.0699 -1.4844 -0.7057
 2265SOL     OW 6629   2.691   0.566   1.824  0.6145  0.4423  0.3894
 2265SOL    HW1 6630   2.669   0.475   1.843  0.1765  0.8248  1.7860
 2265SOL    HW2 6631   2.786   0.566   1.812  0.4855 -0.3778 -0.7889
 2266SOL     OW 6632   1.960   2.216   1.483 -0.1074 -0.0976 -0.2286
 2266SOL    HW1 6633   1.985   2.214   1.575 -0.7710 -1.2593 -0.0552
 2266SOL    HW2 6634   1.944   2.124   1.461  1.5966 -0.0524 -1.9390
 2267SOL     OW 6635   2.751   0.785   2.095  1.1473  0.0608  0.3694
 2267SOL    HW1 6636   2.693   0.757   2.024  1.2069  1.9994 -0.5100
 2267SOL    HW2 6637   2.825   0.825   2.051  2.1271 -0.4207  1.5268
 2268SOL     OW 6638   1.424   2.168   1.487 -0.3634 -0.1218 -0.4497
 2268SOL    HW1 6639   1.331   2.154   1.505 -0.3758  1.7759  1.5070
 2268SOL    HW2 6640   1.435   2.263   1.492  1.8654 -0.3520  0.5666
 2269SOL     OW 6641   1.867   3.084   0.399  0.9224  0.1408  0.1530
 2269SOL    HW1 6642   1.941   3.065   0.341  0.0441 -1.9437 -0.3910
 2269SOL    HW2 6643   1.891   3.165   0.443  0.6412  3.2653 -4.7772
 2270SOL     OW 6644   0.484   1.818   3.430  0.2711  0.1409 -0.2943
 2270SOL    HW1 6645   0.506   1.781   3.516 -1.3534  0.3649  0.2536
 2270SOL    HW2 6646   0.417   1.883   3.449 -1.6393 -1.2340 -1.8990
 2271SOL     OW 6647   3.905   3.460   3.322  0.2413  0.6928  0.4108
 2271SOL    HW1 6648   3.911   3.543   3.276  0.4664  0.2675 -0.3510
 2271SOL    HW2 6649   3.897   3.395   3.253 -1.1026  0.1731  1.0233
 2272SOL     OW 6650   0.485   0.689   2.233 -0.2371  0.4549  0.1033
 2272SOL    HW1 6651   0.452   0.779   2.226 -1.6660  0.0455  1.0632
 2272SOL    HW2 6652   0.408   0.634   2.219  0.5594 -0.6238 -0.1775
 2273SOL     OW 6653   1.988   2.741   0.100  0.1619 -0.0203  0.0070
 2273SOL    HW1 6654   2.019   2.814   0.154 -0.2430 -0.3704  0.7247
 2273SOL    HW2 6655   1.983   2.777   0.011 -0.2952  0.9053  0.3988
 2274SOL     OW 6656   3.741   0.851   1.243  0.5663 -0.4299  0.3146
 2274SOL    HW1 6657   3.660   0.814   1.276  1.3242 -1.5079  1.0288
 2274SOL    HW2 6658   3.728   0.857   1.148 -0.5694  0.0366  0.4852
 2275SOL     OW 6659   3.930   3.569   3.945  0.7313  0.3735 -0.1430
 2275SOL    HW1 6660   4.016   3.605   3.923  0.6796  0.6675  0.1287
 2275SOL    HW2 6661   3.893   3.632   4.006  0.3369  0.2267 -0.2312
 2276SOL     OW 6662   0.109   0.176   0.837 -0.2656 -0.4937  0.2773
 2276SOL    HW1 6663   0.057   0.206   0.763 -0.6519 -0.7079  0.4598
 2276SOL    HW2 6664   0.045   0.139   0.898 -0.1752  1.1645  1.4570
 2277SOL     OW 6665   2.873   0.766   1.293  0.2579 -0.2262 -0.4947
 2277SOL    HW1 6666   2.940   0.778   1.360  0.4696  1.8743 -1.0182
 2277SOL    HW2 6667   2.819   0.845   1.299 -1.0296 -1.0111 -1.3598
 2278SOL     OW 6668   2.090   2.246   3.434 -0.4589  0.1759  0.0551
 2278SOL    HW1 6669   2.152   2.318   3.431 -0.1159  0.0453  2.1461
 2278SOL    HW2 6670   2.141   2.169   3.409  0.2509  0.0869  1.6477
 2279SOL     OW 6671   1.694   1.441   1.433  0.0023 -0.0047 -0.6640
 2279SOL    HW1 6672   1.667   1.518   1.383 -1.3238  0.2917  0.4473
 2279SOL    HW2 6673   1.716   1.475   1.520 -1.1530 -0.9192  0.0112
 2280SOL     OW 6674   2.966   0.825   1.009 -0.2286  0.1355 -0.0230
 2280SOL    HW1 6675   3.058   0.844   1.028 -0.3594  2.8047 -1.6645
 2280SOL    HW2 6676   2.926   0.812   1.095  1.6521 -1.3111  0.7132
 2281SOL     OW 6677   3.365   0.879   1.538 -0.2445  0.0104 -0.1590
 2281SOL    HW1 6678   3.425   0.860   1.466 -0.1932 -1.1736  0.1821
 2281SOL    HW2 6679   3.308   0.948   1.504  0.2601 -0.0043 -1.0612
 2282SOL     OW 6680   0.259   2.998   2.834  0.5413 -0.6292  0.0460
 2282SOL    HW1 6681   0.220   3.039   2.756  1.5707  1.1523  0.3979
 2282SOL    HW2 6682   0.188   2.993   2.897 -0.1580 -1.5170 -0.7975
 2283SOL     OW 6683   0.809   3.937   3.240  0.1776 -0.2992 -0.1822
 2283SOL    HW1 6684   0.715   3.935   3.261 -0.4332  1.7524 -2.2347
 2283SOL    HW2 6685   0.846   4.003   3.299 -0.3736  1.2142 -1.4470
 2284SOL     OW 6686   0.230   1.412   0.438 -0.2202 -0.5849 -0.2944
 2284SOL    HW1 6687   0.189   1.458   0.364  0.5209 -1.4295 -1.2618
 2284SOL    HW2 6688   0.323   1.410   0.417  0.0463 -0.5474  0.8388
 2285SOL     OW 6689   0.304   3.883   1.004  0.2502 -0.2152 -0.0096
 2285SOL    HW1 6690   0.308   3.835   0.922  1.2548  0.1422 -0.1843
 2285SOL    HW2 6691   0.310   3.975   0.978  0.6892 -0.1051  0.4647
 2286SOL     OW 6692   1.967   2.239   3.966 -0.2237 -0.2341 -0.1136
 2286SOL    HW1 6693   1.997   2.316   4.014  0.6521 -0.8626  0.3801
 2286SOL    HW2 6694   1.978   2.263   3.873 -0.1328  0.3006  0.0290
 2287SOL     OW 6695   2.181   3.856   0.570 -0.6643 -0.8933 -0.0678
 2287SOL    HW1 6696   2.242   3.814   0.509 -1.3574 -2.1622  0.0875
 2287SOL    HW2 6697   2.220   3.841   0.656 -0.8589 -1.1407 -0.0212
 2288SOL     OW 6698   2.615   2.373   3.522  0.8695  0.7834 -0.9938
 2288SOL    HW1 6699   2.549   2.347   3.458  1.2527  0.5069 -1.2775
 2288SOL    HW2 6700   2.640   2.462   3.498  0.1610  1.1190 -0.5204
 2289SOL     OW 6701   3.958   0.865   2.541 -0.2380  0.4006 -0.2200
 2289SOL    HW1 6702   4.027   0.869   2.475 -1.2459 -2.6284 -1.6453
 2289SOL    HW2 6703   3.924   0.776   2.534 -3.1126  1.2335  1.6426
 2290SOL     OW 6704   3.178   1.236   1.986 -0.3692 -0.0082  0.0903
 2290SOL    HW1 6705   3.115   1.267   1.921 -0.4728  1.8160  1.0142
 2290SOL    HW2 6706   3.244   1.190   1.935 -0.8696  0.6771 -1.2213
 2291SOL     OW 6707   2.143   1.213   1.605  0.6014 -0.0383  0.1620
 2291SOL    HW1 6708   2.209   1.245   1.666  0.6843  1.2906 -0.5912
 2291SOL    HW2 6709   2.060   1.241   1.643  0.6130  0.2360 -0.0147
 2292SOL     OW 6710   0.841   0.643   4.052  0.2964  0.3950  0.8246
 2292SOL    HW1 6711   0.924   0.682   4.079  0.7276 -0.1611  0.3490
 2292SOL    HW2 6712   0.780   0.664   4.122  1.0459  0.1378  1.5343
 2293SOL     OW 6713   0.984   1.619   0.101  0.0039  0.1037 -0.1150
 2293SOL    HW1 6714   0.982   1.703   0.056  0.9332  1.1068  1.5930
 2293SOL    HW2 6715   1.048   1.632   0.172  0.0407 -1.9911  0.2844
 2294SOL     OW 6716   1.191   4.070   3.463 -0.1893  0.1587 -0.0314
 2294SOL    HW1 6717   1.262   4.104   3.409  0.4657  0.6668  1.1206
 2294SOL    HW2 6718   1.133   4.145   3.476  0.4601  0.4373  1.2282
 2295SOL     OW 6719   0.827   3.872   2.967 -0.2282 -0.0215 -0.4120
 2295SOL    HW1 6720   0.824   3.902   3.058 -1.1075 -1.4275  0.0388
 2295SOL    HW2 6721   0.855   3.781   2.972 -1.4919 -0.4897 -1.4510
 2296SOL     OW 6722   3.887   1.725   2.404  0.1486  0.1376 -0.0758
 2296SOL    HW1 6723   3.955   1.762   2.348 -0.6742  0.7367 -0.6949
 2296SOL    HW2 6724   3.838   1.666   2.347  0.0824 -0.2057  0.3351
 2297SOL     OW 6725   3.296   3.577   0.548  0.3492 -0.3761 -0.4398
 2297SOL    HW1 6726   3.299   3.628   0.467  0.0436 -1.4437 -1.1421
 2297SOL    HW2 6727   3.317   3.488   0.521 -1.1037 -1.0194  0.4294
 2298SOL     OW 6728   1.369   3.927   1.658  0.5455 -0.8455  0.2055
 2298SOL    HW1 6729   1.355   4.017   1.686  1.9413 -1.1318  2.0193
 2298SOL    HW2 6730   1.426   3.933   1.582  1.0069 -0.1864  0.5915
 2299SOL     OW 6731   1.103   0.713   2.566  0.3835 -0.0833  0.2934
 2299SOL    HW1 6732   1.106   0.618   2.575  1.3578  0.0619  2.1675
 2299SOL    HW2 6733   1.181   0.735   2.515  1.5990 -0.1860  1.9790
 2300SOL     OW 6734   2.363   2.085   2.865 -0.8623  0.2739 -0.1537
 2300SOL    HW1 6735   2.328   2.097   2.954  0.7617  1.0512  0.4313
 2300SOL    HW2 6736   2.355   1.992   2.849 -0.0886 -0.0873  1.3311
 2301SOL     OW 6737   0.137   2.933   0.958  0.3942 -0.2035  0.7796
 2301SOL    HW1 6738   0.190   2.923   0.879 -0.7392  0.4561 -0.1144
 2301SOL    HW2 6739   0.125   2.844   0.991  2.0871 -0.3531  1.0489
 2302SOL     OW 6740   2.461   1.737   3.452 -0.3647 -0.5957 -0.6680
 2302SOL    HW1 6741   2.406   1.660   3.468 -0.1801 -0.7562 -0.8036
 2302SOL    HW2 6742   2.534   1.704   3.399  0.5000 -0.6433  0.5119
 2303SOL     OW 6743   3.364   2.041   3.871  0.1132 -0.3984  0.1773
 2303SOL    HW1 6744   3.397   2.080   3.790 -1.4080  0.0161 -0.2756
 2303SOL    HW2 6745   3.384   1.948   3.862  1.7326 -0.0797  0.2365
 2304SOL     OW 6746   3.089   1.444   0.737  0.7578  0.2002 -0.1522
 2304SOL    HW1 6747   3.142   1.421   0.661  0.5643  0.6237 -0.4168
 2304SOL    HW2 6748   3.150   1.485   0.798  0.2791  3.4469 -1.6393
 2305SOL     OW 6749   4.024   0.495   0.071  0.0034  0.7505  0.5532
 2305SOL    HW1 6750   4.065   0.575   0.038  1.5295  0.8155  2.4431
 2305SOL    HW2 6751   4.098   0.441   0.102 -1.2094 -0.2602  1.7068
 2306SOL     OW 6752   2.358   3.604   3.699  0.1506  0.5577  0.5489
 2306SOL    HW1 6753   2.297   3.671   3.668 -0.4023  0.8406  2.1598
 2306SOL    HW2 6754   2.445   3.642   3.685  0.0254  0.1919 -1.6673
 2307SOL     OW 6755   0.614   4.045   3.497  0.0870  0.1470 -0.3639
 2307SOL    HW1 6756   0.579   4.032   3.409 -0.2523 -0.1595 -0.1850
 2307SOL    HW2 6757   0.690   4.102   3.485 -0.4866  0.8080 -0.7568
 2308SOL     OW 6758   2.958   4.060   2.670  0.5078 -0.0083  0.2488
 2308SOL    HW1 6759   2.964   3.973   2.630 -0.6109 -0.6876  1.4876
 2308SOL    HW2 6760   2.868   4.088   2.653  1.3253  1.6728 -1.6549
 2309SOL     OW 6761   2.744   0.998   1.251 -0.1123 -0.3380 -0.4966
 2309SOL    HW1 6762   2.761   1.075   1.305 -2.1698  0.0179 -0.2716
 2309SOL    HW2 6763   2.767   1.026   1.162  0.6315 -0.0079 -0.2120
 2310SOL     OW 6764   3.568   1.585   1.825 -0.1290  0.4834 -0.3528
 2310SOL    HW1 6765   3.632   1.589   1.754 -1.3262  1.3310 -1.4288
 2310SOL    HW2 6766   3.609   1.634   1.897  0.1381  1.6902 -1.2864
 2311SOL     OW 6767   2.306   1.684   0.163 -0.2726 -0.4713  0.0882
 2311SOL    HW1 6768   2.363   1.701   0.238  0.2244 -1.4624 -0.0423
 2311SOL    HW2 6769   2.244   1.619   0.195  0.3538 -1.3978 -0.5232
 2312SOL     OW 6770   2.028   1.406   2.188 -0.4487  0.0587 -0.2504
 2312SOL    HW1 6771   2.039   1.423   2.281 -0.5789 -0.2182 -0.1832
 2312SOL    HW2 6772   1.937   1.376   2.180 -1.1811  2.2397 -0.7842
 2313SOL     OW 6773   3.870   3.347   0.657  0.0198  0.1884 -0.4706
 2313SOL    HW1 6774   3.823   3.400   0.593 -1.3585 -0.2861  0.0963
 2313SOL    HW2 6775   3.819   3.266   0.663 -0.2878  0.4635  1.6657
 2314SOL     OW 6776   1.037   0.201   1.397  0.0094  0.1235  0.4128
 2314SOL    HW1 6777   1.096   0.133   1.365  0.1213  0.1865  0.4840
 2314SOL    HW2 6778   1.084   0.283   1.380 -0.4541  0.2288 -0.3745
 2315SOL     OW 6779   3.776   0.262   3.551  0.2360 -0.1859 -0.0813
 2315SOL    HW1 6780   3.689   0.279   3.515  0.1758  0.2396  0.2649
 2315SOL    HW2 6781   3.821   0.347   3.548  0.1642 -0.0990  1.0273
 2316SOL     OW 6782   3.004   0.381   2.151  0.3625  0.3332 -0.7552
 2316SOL    HW1 6783   2.930   0.431   2.186 -0.6795 -0.2875 -1.9724
 2316SOL    HW2 6784   2.991   0.292   2.185  0.7982  0.3249 -0.6102
 2317SOL     OW 6785   0.322   2.161   2.368  0.6672  1.0093  0.2861
 2317SOL    HW1 6786   0.347   2.068   2.371  2.0650  1.2604 -1.4930
 2317SOL    HW2 6787   0.246   2.163   2.309 -0.0187  0.9037  1.1458
 2318SOL     OW 6788   3.767   1.614   1.241 -0.2651  0.3069  0.0412
 2318SOL    HW1 6789   3.799   1.524   1.252  2.1531  1.1629  0.5566
 2318SOL    HW2 6790   3.824   1.652   1.174 -0.2891  1.8787  0.8700
 2319SOL     OW 6791   1.325   0.961   3.037  0.4432  0.0070  0.4219
 2319SOL    HW1 6792   1.388   1.033   3.033  1.6217 -0.7843  2.8148
 2319SOL    HW2 6793   1.313   0.944   3.130 -2.1532 -0.9293 -0.0092
 2320SOL     OW 6794   0.343   1.185   2.753 -0.1817  0.1652 -0.8106
 2320SOL    HW1 6795   0.295   1.220   2.678 -1.5370  2.3562  0.9385
 2320SOL    HW2 6796   0.282   1.194   2.827  1.1801 -1.6413  0.6304
 2321SOL     OW 6797   0.096   2.966   2.317  0.3289 -0.2399 -0.5435
 2321SOL    HW1 6798   0.051   2.932   2.394  1.6104  0.1350  0.4011
 2321SOL    HW2 6799   0.028   3.013   2.268 -0.3145  0.2976  0.8136
 2322SOL     OW 6800   1.565   1.092   2.387 -0.1520 -0.4060 -0.0397
 2322SOL    HW1 6801   1.538   1.089   2.479  0.6044 -2.1048  0.1695
 2322SOL    HW2 6802   1.649   1.046   2.386 -0.3525 -0.7761 -1.6397
 2323SOL     OW 6803   2.674   0.124   1.177  0.1226  0.4869  0.0352
 2323SOL    HW1 6804   2.586   0.089   1.189 -0.4592  1.9000  0.1786
 2323SOL    HW2 6805   2.667   0.215   1.206  1.9140  0.3249  1.1249
 2324SOL     OW 6806   0.286   3.264   1.794  0.2819 -0.3525  0.5240
 2324SOL    HW1 6807   0.297   3.251   1.888 -2.7304  1.4502  1.2627
 2324SOL    HW2 6808   0.202   3.224   1.774 -0.8577  2.3571 -0.5905
 2325SOL     OW 6809   3.657   2.176   1.954  0.1742 -0.4005  0.3303
 2325SOL    HW1 6810   3.587   2.240   1.962  0.5441 -0.1822  2.1847
 2325SOL    HW2 6811   3.664   2.137   2.041  2.3613 -0.4020  0.2059
 2326SOL     OW 6812   0.421   0.841   3.566  0.1196 -0.8155  0.1847
 2326SOL    HW1 6813   0.334   0.804   3.547 -0.3093  0.8654 -1.4278
 2326SOL    HW2 6814   0.474   0.816   3.491  0.3724  0.1247  0.0428
 2327SOL     OW 6815   2.281   0.359   0.290  0.8295 -0.1434  0.2919
 2327SOL    HW1 6816   2.222   0.292   0.326  1.4552  0.3182  2.3380
 2327SOL    HW2 6817   2.238   0.390   0.211 -1.4415 -0.1616  1.4447
 2328SOL     OW 6818   1.887   1.595   1.905  0.4657 -0.3526 -0.2583
 2328SOL    HW1 6819   1.909   1.668   1.963  0.1807 -1.4756  1.3226
 2328SOL    HW2 6820   1.905   1.516   1.956 -2.1374 -1.3902 -0.7450
 2329SOL     OW 6821   0.438   2.470   0.107 -0.0920  0.5868 -0.0508
 2329SOL    HW1 6822   0.391   2.422   0.038 -0.2748  2.4787 -1.3349
 2329SOL    HW2 6823   0.530   2.454   0.088 -0.1546 -0.0348  0.1381
 2330SOL     OW 6824   3.927   0.039   3.612 -0.1602 -0.2571  0.0232
 2330SOL    HW1 6825   3.862   0.109   3.611 -2.0686 -1.6947  3.9582
 2330SOL    HW2 6826   3.901  -0.020   3.541  0.9500  2.3847 -2.7623
 2331SOL     OW 6827   3.132   2.599   2.374  0.2392 -0.0646  0.1644
 2331SOL    HW1 6828   3.110   2.574   2.284 -1.6155  0.6171  0.3831
 2331SOL    HW2 6829   3.213   2.649   2.366  2.2771 -3.2401 -0.6427
 2332SOL     OW 6830   1.207   3.196   3.786 -0.1262  0.1162  0.0158
 2332SOL    HW1 6831   1.114   3.217   3.794 -0.2274 -0.6738  1.2324
 2332SOL    HW2 6832   1.239   3.194   3.876  1.2834  1.2304 -0.4311
 2333NA      NA 6833   1.368   2.900   1.153 -0.4819  0.3254 -0.2484
 2334NA      NA 6834   3.425   0.544   3.038 -0.0691 -0.0593 -0.0930
 2335NA      NA 6835   2.925   2.954   2.441  0.3863  0.0039 -0.2279
 2336NA      NA 6836   0.931   0.488   0.275 -0.8253 -0.2665  0.4339
 2337NA      NA 6837   0.979   0.865   2.701  0.0213 -0.0379  0.3619
 2338NA      NA 6838   3.915   1.907   3.985  0.4137  0.1316 -0.4546
 2339CL      CL 6839   2.325   2.486   2.800 -0.1735 -0.1104  0.0017
 2340CL      CL 6840   1.803   3.794   2.722 -0.2874  0.0835 -0.2239
 2341CL      CL 6841   0.715   3.061   0.437  0.0273 -0.2131  0.4687
 2342CL      CL 6842   3.821   0.160   0.720 -0.4026  0.1985 -0.1949
 2343CL      CL 6843   3.526   0.055   3.000 -0.5083  0.0317 -0.0277
 2344CL      CL 6844   0.838   1.796   3.660  0.3961 -0.5154 -0.0625
   4.07263   4.07263   4.07263
