;
;	File 'havssn.top' was generated
;	By user: unknown (1102)
;	On host: CHEM-pekoe
;	At date: Thu May  9 14:21:00 2024

;
;	This is a standalone topology file
;
;	Created by:
;	                 :-) GROMACS - gmx pdb2gmx, VERSION 5.1.4 (-:
;	
;	Executable:   /home/kuczera/prog/gromacs-5.1.4/bin/gmx
;	Data prefix:  /home/kuczera/prog/gromacs-5.1.4
;	Command line:
;	  gmx pdb2gmx -inter -ignh -f havssn.pdb -p havssn.top -o havssn.gro -ff charmm36-nov2018 -water tip3p
;	Force field was read from the standard GROMACS share directory.
;

; Include forcefield parameters
#include "charmm36-nov2018.ff/forcefield.itp"

[ moleculetype ]
; Name            nrexcl
Protein             3

[ atoms ]
;   nr       type  resnr residue  atom   cgnr     charge       mass  typeB    chargeB      massB
; residue  79 ACE rtp ACE  q  0.0
     1        CT3     79    ACE    CH3      1      -0.27     12.011   ; qtot -0.27
     2        HA3     79    ACE   HH31      1       0.09      1.008   ; qtot -0.18
     3        HA3     79    ACE   HH32      1       0.09      1.008   ; qtot -0.09
     4        HA3     79    ACE   HH33      1       0.09      1.008   ; qtot 0
     5          C     79    ACE      C      2       0.51     12.011   ; qtot 0.51
     6          O     79    ACE      O      2      -0.51     15.999   ; qtot 0
; residue  79 HSD rtp HSD  q  0.0
     7        NH1     79    HSD      N      3      -0.47     14.007   ; qtot -0.47
     8          H     79    HSD     HN      4       0.31      1.008   ; qtot -0.16
     9        CT1     79    HSD     CA      5       0.07     12.011   ; qtot -0.09
    10        HB1     79    HSD     HA      6       0.09      1.008   ; qtot 0
    11        CT2     79    HSD     CB      7      -0.09     12.011   ; qtot -0.09
    12        HA2     79    HSD    HB1      8       0.09      1.008   ; qtot 0
    13        HA2     79    HSD    HB2      9       0.09      1.008   ; qtot 0.09
    14        NR1     79    HSD    ND1     10      -0.36     14.007   ; qtot -0.27
    15          H     79    HSD    HD1     11       0.32      1.008   ; qtot 0.05
    16       CPH1     79    HSD     CG     12      -0.05     12.011   ; qtot 0
    17       CPH2     79    HSD    CE1     13       0.25     12.011   ; qtot 0.25
    18        HR1     79    HSD    HE1     14       0.13      1.008   ; qtot 0.38
    19        NR2     79    HSD    NE2     15       -0.7     14.007   ; qtot -0.32
    20       CPH1     79    HSD    CD2     16       0.22     12.011   ; qtot -0.1
    21        HR3     79    HSD    HD2     17        0.1      1.008   ; qtot 0
    22          C     79    HSD      C     18       0.51     12.011   ; qtot 0.51
    23          O     79    HSD      O     19      -0.51     15.999   ; qtot 0
; residue  80 ALA rtp ALA  q  0.0
    24        NH1     80    ALA      N     20      -0.47     14.007   ; qtot -0.47
    25          H     80    ALA     HN     21       0.31      1.008   ; qtot -0.16
    26        CT1     80    ALA     CA     22       0.07     12.011   ; qtot -0.09
    27        HB1     80    ALA     HA     23       0.09      1.008   ; qtot 0
    28        CT3     80    ALA     CB     24      -0.27     12.011   ; qtot -0.27
    29        HA3     80    ALA    HB1     25       0.09      1.008   ; qtot -0.18
    30        HA3     80    ALA    HB2     26       0.09      1.008   ; qtot -0.09
    31        HA3     80    ALA    HB3     27       0.09      1.008   ; qtot 0
    32          C     80    ALA      C     28       0.51     12.011   ; qtot 0.51
    33          O     80    ALA      O     29      -0.51     15.999   ; qtot 0
; residue  81 VAL rtp VAL  q  0.0
    34        NH1     81    VAL      N     30      -0.47     14.007   ; qtot -0.47
    35          H     81    VAL     HN     31       0.31      1.008   ; qtot -0.16
    36        CT1     81    VAL     CA     32       0.07     12.011   ; qtot -0.09
    37        HB1     81    VAL     HA     33       0.09      1.008   ; qtot 0
    38        CT1     81    VAL     CB     34      -0.09     12.011   ; qtot -0.09
    39        HA1     81    VAL     HB     35       0.09      1.008   ; qtot 0
    40        CT3     81    VAL    CG1     36      -0.27     12.011   ; qtot -0.27
    41        HA3     81    VAL   HG11     37       0.09      1.008   ; qtot -0.18
    42        HA3     81    VAL   HG12     38       0.09      1.008   ; qtot -0.09
    43        HA3     81    VAL   HG13     39       0.09      1.008   ; qtot 0
    44        CT3     81    VAL    CG2     40      -0.27     12.011   ; qtot -0.27
    45        HA3     81    VAL   HG21     41       0.09      1.008   ; qtot -0.18
    46        HA3     81    VAL   HG22     42       0.09      1.008   ; qtot -0.09
    47        HA3     81    VAL   HG23     43       0.09      1.008   ; qtot 0
    48          C     81    VAL      C     44       0.51     12.011   ; qtot 0.51
    49          O     81    VAL      O     45      -0.51     15.999   ; qtot 0
; residue  82 SER rtp SER  q  0.0
    50        NH1     82    SER      N     46      -0.47     14.007   ; qtot -0.47
    51          H     82    SER     HN     47       0.31      1.008   ; qtot -0.16
    52        CT1     82    SER     CA     48       0.07     12.011   ; qtot -0.09
    53        HB1     82    SER     HA     49       0.09      1.008   ; qtot 0
    54        CT2     82    SER     CB     50       0.05     12.011   ; qtot 0.05
    55        HA2     82    SER    HB1     51       0.09      1.008   ; qtot 0.14
    56        HA2     82    SER    HB2     52       0.09      1.008   ; qtot 0.23
    57        OH1     82    SER     OG     53      -0.66     15.999   ; qtot -0.43
    58          H     82    SER    HG1     54       0.43      1.008   ; qtot 0
    59          C     82    SER      C     55       0.51     12.011   ; qtot 0.51
    60          O     82    SER      O     56      -0.51     15.999   ; qtot 0
; residue  83 SER rtp SER  q  0.0
    61        NH1     83    SER      N     57      -0.47     14.007   ; qtot -0.47
    62          H     83    SER     HN     58       0.31      1.008   ; qtot -0.16
    63        CT1     83    SER     CA     59       0.07     12.011   ; qtot -0.09
    64        HB1     83    SER     HA     60       0.09      1.008   ; qtot 0
    65        CT2     83    SER     CB     61       0.05     12.011   ; qtot 0.05
    66        HA2     83    SER    HB1     62       0.09      1.008   ; qtot 0.14
    67        HA2     83    SER    HB2     63       0.09      1.008   ; qtot 0.23
    68        OH1     83    SER     OG     64      -0.66     15.999   ; qtot -0.43
    69          H     83    SER    HG1     65       0.43      1.008   ; qtot 0
    70          C     83    SER      C     66       0.51     12.011   ; qtot 0.51
    71          O     83    SER      O     67      -0.51     15.999   ; qtot 0
; residue  84 ASN rtp ASN  q  0.0
    72        NH1     84    ASN      N     68      -0.47     14.007   ; qtot -0.47
    73          H     84    ASN     HN     69       0.31      1.008   ; qtot -0.16
    74        CT1     84    ASN     CA     70       0.07     12.011   ; qtot -0.09
    75        HB1     84    ASN     HA     71       0.09      1.008   ; qtot 0
    76        CT2     84    ASN     CB     72      -0.18     12.011   ; qtot -0.18
    77        HA2     84    ASN    HB1     73       0.09      1.008   ; qtot -0.09
    78        HA2     84    ASN    HB2     74       0.09      1.008   ; qtot 0
    79         CC     84    ASN     CG     75       0.55     12.011   ; qtot 0.55
    80          O     84    ASN    OD1     76      -0.55     15.999   ; qtot 0
    81        NH2     84    ASN    ND2     77      -0.62     14.007   ; qtot -0.62
    82          H     84    ASN   HD21     78       0.32      1.008   ; qtot -0.3
    83          H     84    ASN   HD22     79        0.3      1.008   ; qtot 0
    84         CC     84    ASN      C     80       0.55     12.011   ; qtot 0.55
    85        NH2     84    ASN     NT     81      -0.62    14.0027   ; qtot -0.07
    86          H     84    ASN    HT1     82        0.3      1.008   ; qtot 0.23
    87          H     84    ASN    HT2     83       0.32      1.008   ; qtot 0.55
    88          O     84    ASN      O     84      -0.55    15.9994   ; qtot 0

[ bonds ]
;  ai    aj funct            c0            c1            c2            c3
    1     2     1 
    1     3     1 
    1     4     1 
    1     5     1 
    5     6     1 
    5     7     1 
    7     8     1 
    7     9     1 
    9    10     1 
    9    11     1 
    9    22     1 
   11    12     1 
   11    13     1 
   11    16     1 
   14    15     1 
   14    16     1 
   14    17     1 
   16    20     1 
   17    18     1 
   17    19     1 
   19    20     1 
   20    21     1 
   22    23     1 
   22    24     1 
   24    25     1 
   24    26     1 
   26    27     1 
   26    28     1 
   26    32     1 
   28    29     1 
   28    30     1 
   28    31     1 
   32    33     1 
   32    34     1 
   34    35     1 
   34    36     1 
   36    37     1 
   36    38     1 
   36    48     1 
   38    39     1 
   38    40     1 
   38    44     1 
   40    41     1 
   40    42     1 
   40    43     1 
   44    45     1 
   44    46     1 
   44    47     1 
   48    49     1 
   48    50     1 
   50    51     1 
   50    52     1 
   52    53     1 
   52    54     1 
   52    59     1 
   54    55     1 
   54    56     1 
   54    57     1 
   57    58     1 
   59    60     1 
   59    61     1 
   61    62     1 
   61    63     1 
   63    64     1 
   63    65     1 
   63    70     1 
   65    66     1 
   65    67     1 
   65    68     1 
   68    69     1 
   70    71     1 
   70    72     1 
   72    73     1 
   72    74     1 
   74    75     1 
   74    76     1 
   74    84     1 
   76    77     1 
   76    78     1 
   76    79     1 
   79    80     1 
   79    81     1 
   81    82     1 
   81    83     1 
   84    85     1 
   84    88     1 
   85    86     1 
   85    87     1 

[ pairs ]
;  ai    aj funct            c0            c1            c2            c3
    1     8     1 
    1     9     1 
    2     6     1 
    2     7     1 
    3     6     1 
    3     7     1 
    4     6     1 
    4     7     1 
    5    10     1 
    5    11     1 
    5    22     1 
    6     8     1 
    6     9     1 
    7    12     1 
    7    13     1 
    7    16     1 
    7    23     1 
    7    24     1 
    8    10     1 
    8    11     1 
    8    22     1 
    9    14     1 
    9    20     1 
    9    25     1 
    9    26     1 
   10    12     1 
   10    13     1 
   10    16     1 
   10    23     1 
   10    24     1 
   11    15     1 
   11    17     1 
   11    19     1 
   11    21     1 
   11    23     1 
   11    24     1 
   12    14     1 
   12    20     1 
   12    22     1 
   13    14     1 
   13    20     1 
   13    22     1 
   14    21     1 
   15    18     1 
   15    19     1 
   15    20     1 
   16    18     1 
   16    22     1 
   17    21     1 
   18    20     1 
   22    27     1 
   22    28     1 
   22    32     1 
   23    25     1 
   23    26     1 
   24    29     1 
   24    30     1 
   24    31     1 
   24    33     1 
   24    34     1 
   25    27     1 
   25    28     1 
   25    32     1 
   26    35     1 
   26    36     1 
   27    29     1 
   27    30     1 
   27    31     1 
   27    33     1 
   27    34     1 
   28    33     1 
   28    34     1 
   29    32     1 
   30    32     1 
   31    32     1 
   32    37     1 
   32    38     1 
   32    48     1 
   33    35     1 
   33    36     1 
   34    39     1 
   34    40     1 
   34    44     1 
   34    49     1 
   34    50     1 
   35    37     1 
   35    38     1 
   35    48     1 
   36    41     1 
   36    42     1 
   36    43     1 
   36    45     1 
   36    46     1 
   36    47     1 
   36    51     1 
   36    52     1 
   37    39     1 
   37    40     1 
   37    44     1 
   37    49     1 
   37    50     1 
   38    49     1 
   38    50     1 
   39    41     1 
   39    42     1 
   39    43     1 
   39    45     1 
   39    46     1 
   39    47     1 
   39    48     1 
   40    45     1 
   40    46     1 
   40    47     1 
   40    48     1 
   41    44     1 
   42    44     1 
   43    44     1 
   44    48     1 
   48    53     1 
   48    54     1 
   48    59     1 
   49    51     1 
   49    52     1 
   50    55     1 
   50    56     1 
   50    57     1 
   50    60     1 
   50    61     1 
   51    53     1 
   51    54     1 
   51    59     1 
   52    58     1 
   52    62     1 
   52    63     1 
   53    55     1 
   53    56     1 
   53    57     1 
   53    60     1 
   53    61     1 
   54    60     1 
   54    61     1 
   55    58     1 
   55    59     1 
   56    58     1 
   56    59     1 
   57    59     1 
   59    64     1 
   59    65     1 
   59    70     1 
   60    62     1 
   60    63     1 
   61    66     1 
   61    67     1 
   61    68     1 
   61    71     1 
   61    72     1 
   62    64     1 
   62    65     1 
   62    70     1 
   63    69     1 
   63    73     1 
   63    74     1 
   64    66     1 
   64    67     1 
   64    68     1 
   64    71     1 
   64    72     1 
   65    71     1 
   65    72     1 
   66    69     1 
   66    70     1 
   67    69     1 
   67    70     1 
   68    70     1 
   70    75     1 
   70    76     1 
   70    84     1 
   71    73     1 
   71    74     1 
   72    77     1 
   72    78     1 
   72    79     1 
   72    85     1 
   72    88     1 
   73    75     1 
   73    76     1 
   73    84     1 
   74    80     1 
   74    81     1 
   74    86     1 
   74    87     1 
   75    77     1 
   75    78     1 
   75    79     1 
   75    85     1 
   75    88     1 
   76    82     1 
   76    83     1 
   76    85     1 
   76    88     1 
   77    80     1 
   77    81     1 
   77    84     1 
   78    80     1 
   78    81     1 
   78    84     1 
   79    84     1 
   80    82     1 
   80    83     1 
   86    88     1 
   87    88     1 

[ angles ]
;  ai    aj    ak funct            c0            c1            c2            c3
    2     1     3     5 
    2     1     4     5 
    2     1     5     5 
    3     1     4     5 
    3     1     5     5 
    4     1     5     5 
    1     5     6     5 
    1     5     7     5 
    6     5     7     5 
    5     7     8     5 
    5     7     9     5 
    8     7     9     5 
    7     9    10     5 
    7     9    11     5 
    7     9    22     5 
   10     9    11     5 
   10     9    22     5 
   11     9    22     5 
    9    11    12     5 
    9    11    13     5 
    9    11    16     5 
   12    11    13     5 
   12    11    16     5 
   13    11    16     5 
   15    14    16     5 
   15    14    17     5 
   16    14    17     5 
   11    16    14     5 
   11    16    20     5 
   14    16    20     5 
   14    17    18     5 
   14    17    19     5 
   18    17    19     5 
   17    19    20     5 
   16    20    19     5 
   16    20    21     5 
   19    20    21     5 
    9    22    23     5 
    9    22    24     5 
   23    22    24     5 
   22    24    25     5 
   22    24    26     5 
   25    24    26     5 
   24    26    27     5 
   24    26    28     5 
   24    26    32     5 
   27    26    28     5 
   27    26    32     5 
   28    26    32     5 
   26    28    29     5 
   26    28    30     5 
   26    28    31     5 
   29    28    30     5 
   29    28    31     5 
   30    28    31     5 
   26    32    33     5 
   26    32    34     5 
   33    32    34     5 
   32    34    35     5 
   32    34    36     5 
   35    34    36     5 
   34    36    37     5 
   34    36    38     5 
   34    36    48     5 
   37    36    38     5 
   37    36    48     5 
   38    36    48     5 
   36    38    39     5 
   36    38    40     5 
   36    38    44     5 
   39    38    40     5 
   39    38    44     5 
   40    38    44     5 
   38    40    41     5 
   38    40    42     5 
   38    40    43     5 
   41    40    42     5 
   41    40    43     5 
   42    40    43     5 
   38    44    45     5 
   38    44    46     5 
   38    44    47     5 
   45    44    46     5 
   45    44    47     5 
   46    44    47     5 
   36    48    49     5 
   36    48    50     5 
   49    48    50     5 
   48    50    51     5 
   48    50    52     5 
   51    50    52     5 
   50    52    53     5 
   50    52    54     5 
   50    52    59     5 
   53    52    54     5 
   53    52    59     5 
   54    52    59     5 
   52    54    55     5 
   52    54    56     5 
   52    54    57     5 
   55    54    56     5 
   55    54    57     5 
   56    54    57     5 
   54    57    58     5 
   52    59    60     5 
   52    59    61     5 
   60    59    61     5 
   59    61    62     5 
   59    61    63     5 
   62    61    63     5 
   61    63    64     5 
   61    63    65     5 
   61    63    70     5 
   64    63    65     5 
   64    63    70     5 
   65    63    70     5 
   63    65    66     5 
   63    65    67     5 
   63    65    68     5 
   66    65    67     5 
   66    65    68     5 
   67    65    68     5 
   65    68    69     5 
   63    70    71     5 
   63    70    72     5 
   71    70    72     5 
   70    72    73     5 
   70    72    74     5 
   73    72    74     5 
   72    74    75     5 
   72    74    76     5 
   72    74    84     5 
   75    74    76     5 
   75    74    84     5 
   76    74    84     5 
   74    76    77     5 
   74    76    78     5 
   74    76    79     5 
   77    76    78     5 
   77    76    79     5 
   78    76    79     5 
   76    79    80     5 
   76    79    81     5 
   80    79    81     5 
   79    81    82     5 
   79    81    83     5 
   82    81    83     5 
   74    84    85     5 
   74    84    88     5 
   85    84    88     5 
   84    85    86     5 
   84    85    87     5 
   86    85    87     5 

[ dihedrals ]
;  ai    aj    ak    al funct            c0            c1            c2            c3            c4            c5
    2     1     5     6     9 
    2     1     5     7     9 
    3     1     5     6     9 
    3     1     5     7     9 
    4     1     5     6     9 
    4     1     5     7     9 
    1     5     7     8     9 
    1     5     7     9     9 
    6     5     7     8     9 
    6     5     7     9     9 
    5     7     9    10     9 
    5     7     9    11     9 
    5     7     9    22     9 
    8     7     9    10     9 
    8     7     9    11     9 
    8     7     9    22     9 
    7     9    11    12     9 
    7     9    11    13     9 
    7     9    11    16     9 
   10     9    11    12     9 
   10     9    11    13     9 
   10     9    11    16     9 
   22     9    11    12     9 
   22     9    11    13     9 
   22     9    11    16     9 
    7     9    22    23     9 
    7     9    22    24     9 
   10     9    22    23     9 
   10     9    22    24     9 
   11     9    22    23     9 
   11     9    22    24     9 
    9    11    16    14     9 
    9    11    16    20     9 
   12    11    16    14     9 
   12    11    16    20     9 
   13    11    16    14     9 
   13    11    16    20     9 
   15    14    16    11     9 
   15    14    16    20     9 
   17    14    16    11     9 
   17    14    16    20     9 
   15    14    17    18     9 
   15    14    17    19     9 
   16    14    17    18     9 
   16    14    17    19     9 
   11    16    20    19     9 
   11    16    20    21     9 
   14    16    20    19     9 
   14    16    20    21     9 
   14    17    19    20     9 
   18    17    19    20     9 
   17    19    20    16     9 
   17    19    20    21     9 
    9    22    24    25     9 
    9    22    24    26     9 
   23    22    24    25     9 
   23    22    24    26     9 
   22    24    26    27     9 
   22    24    26    28     9 
   22    24    26    32     9 
   25    24    26    27     9 
   25    24    26    28     9 
   25    24    26    32     9 
   24    26    28    29     9 
   24    26    28    30     9 
   24    26    28    31     9 
   27    26    28    29     9 
   27    26    28    30     9 
   27    26    28    31     9 
   32    26    28    29     9 
   32    26    28    30     9 
   32    26    28    31     9 
   24    26    32    33     9 
   24    26    32    34     9 
   27    26    32    33     9 
   27    26    32    34     9 
   28    26    32    33     9 
   28    26    32    34     9 
   26    32    34    35     9 
   26    32    34    36     9 
   33    32    34    35     9 
   33    32    34    36     9 
   32    34    36    37     9 
   32    34    36    38     9 
   32    34    36    48     9 
   35    34    36    37     9 
   35    34    36    38     9 
   35    34    36    48     9 
   34    36    38    39     9 
   34    36    38    40     9 
   34    36    38    44     9 
   37    36    38    39     9 
   37    36    38    40     9 
   37    36    38    44     9 
   48    36    38    39     9 
   48    36    38    40     9 
   48    36    38    44     9 
   34    36    48    49     9 
   34    36    48    50     9 
   37    36    48    49     9 
   37    36    48    50     9 
   38    36    48    49     9 
   38    36    48    50     9 
   36    38    40    41     9 
   36    38    40    42     9 
   36    38    40    43     9 
   39    38    40    41     9 
   39    38    40    42     9 
   39    38    40    43     9 
   44    38    40    41     9 
   44    38    40    42     9 
   44    38    40    43     9 
   36    38    44    45     9 
   36    38    44    46     9 
   36    38    44    47     9 
   39    38    44    45     9 
   39    38    44    46     9 
   39    38    44    47     9 
   40    38    44    45     9 
   40    38    44    46     9 
   40    38    44    47     9 
   36    48    50    51     9 
   36    48    50    52     9 
   49    48    50    51     9 
   49    48    50    52     9 
   48    50    52    53     9 
   48    50    52    54     9 
   48    50    52    59     9 
   51    50    52    53     9 
   51    50    52    54     9 
   51    50    52    59     9 
   50    52    54    55     9 
   50    52    54    56     9 
   50    52    54    57     9 
   53    52    54    55     9 
   53    52    54    56     9 
   53    52    54    57     9 
   59    52    54    55     9 
   59    52    54    56     9 
   59    52    54    57     9 
   50    52    59    60     9 
   50    52    59    61     9 
   53    52    59    60     9 
   53    52    59    61     9 
   54    52    59    60     9 
   54    52    59    61     9 
   52    54    57    58     9 
   55    54    57    58     9 
   56    54    57    58     9 
   52    59    61    62     9 
   52    59    61    63     9 
   60    59    61    62     9 
   60    59    61    63     9 
   59    61    63    64     9 
   59    61    63    65     9 
   59    61    63    70     9 
   62    61    63    64     9 
   62    61    63    65     9 
   62    61    63    70     9 
   61    63    65    66     9 
   61    63    65    67     9 
   61    63    65    68     9 
   64    63    65    66     9 
   64    63    65    67     9 
   64    63    65    68     9 
   70    63    65    66     9 
   70    63    65    67     9 
   70    63    65    68     9 
   61    63    70    71     9 
   61    63    70    72     9 
   64    63    70    71     9 
   64    63    70    72     9 
   65    63    70    71     9 
   65    63    70    72     9 
   63    65    68    69     9 
   66    65    68    69     9 
   67    65    68    69     9 
   63    70    72    73     9 
   63    70    72    74     9 
   71    70    72    73     9 
   71    70    72    74     9 
   70    72    74    75     9 
   70    72    74    76     9 
   70    72    74    84     9 
   73    72    74    75     9 
   73    72    74    76     9 
   73    72    74    84     9 
   72    74    76    77     9 
   72    74    76    78     9 
   72    74    76    79     9 
   75    74    76    77     9 
   75    74    76    78     9 
   75    74    76    79     9 
   84    74    76    77     9 
   84    74    76    78     9 
   84    74    76    79     9 
   72    74    84    85     9 
   72    74    84    88     9 
   75    74    84    85     9 
   75    74    84    88     9 
   76    74    84    85     9 
   76    74    84    88     9 
   74    76    79    80     9 
   74    76    79    81     9 
   77    76    79    80     9 
   77    76    79    81     9 
   78    76    79    80     9 
   78    76    79    81     9 
   76    79    81    82     9 
   76    79    81    83     9 
   80    79    81    82     9 
   80    79    81    83     9 
   74    84    85    86     9 
   74    84    85    87     9 
   88    84    85    86     9 
   88    84    85    87     9 

[ dihedrals ]
;  ai    aj    ak    al funct            c0            c1            c2            c3
    5     1     7     6     2 
    7     5     9     8     2 
   14    16    17    15     2 
   14    17    16    15     2 
   17    14    19    18     2 
   17    19    14    18     2 
   20    16    19    21     2 
   20    19    16    21     2 
   22     9    24    23     2 
   24    22    26    25     2 
   32    26    34    33     2 
   34    32    36    35     2 
   48    36    50    49     2 
   50    48    52    51     2 
   59    52    61    60     2 
   61    59    63    62     2 
   70    63    72    71     2 
   72    70    74    73     2 
   79    76    81    80     2 
   79    81    76    80     2 
   81    79    83    82     2 
   81    79    82    83     2 
   84    74    85    88     2 
   84    85    74    88     2 
   85    84    87    86     2 
   85    84    86    87     2 

[ cmap ]
;  ai    aj    ak    al    am funct
    5     7     9    22    24     1 
   22    24    26    32    34     1 
   32    34    36    48    50     1 
   48    50    52    59    61     1 
   59    61    63    70    72     1 

; Include Position restraint file
#ifdef POSRES
#include "posre.itp"
#endif

; Include water topology
#include "charmm36-nov2018.ff/tip3p.itp"

#ifdef POSRES_WATER
; Position restraint for each water oxygen
[ position_restraints ]
;  i funct       fcx        fcy        fcz
   1    1       1000       1000       1000
#endif

; Include topology for ions
#include "charmm36-nov2018.ff/ions.itp"

[ system ]
; Name
Protein in water

[ molecules ]
; Compound        #mols
Protein             1
SOL         2248
NA               6
CL               6
