;
;	File 'ssngna.top' was generated
;	By user: unknown (1102)
;	On host: CHEM-pekoe
;	At date: Mon Aug 10 14:36:36 2026

;
;	This is a standalone topology file
;
;	Created by:
;	                 :-) GROMACS - gmx pdb2gmx, VERSION 5.1.4 (-:
;	
;	Executable:   /home/kuczera/prog/gromacs-5.1.4/bin/gmx
;	Data prefix:  /home/kuczera/prog/gromacs-5.1.4
;	Command line:
;	  gmx pdb2gmx -inter -ignh -f ssngna_chm.pdb -p ssngna.top -o ssngna.gro -ff charmm36-nov2018 -water tip3p
;	Force field was read from the standard GROMACS share directory.
;

; Include forcefield parameters
#include "charmm36-nov2018.ff/forcefield.itp"

[ moleculetype ]
; Name            nrexcl
Protein             3

[ atoms ]
;   nr       type  resnr residue  atom   cgnr     charge       mass  typeB    chargeB      massB
; residue  82 ACE rtp ACE  q  0.0
     1        CT3     82    ACE    CH3      1      -0.27     12.011   ; qtot -0.27
     2        HA3     82    ACE   HH31      1       0.09      1.008   ; qtot -0.18
     3        HA3     82    ACE   HH32      1       0.09      1.008   ; qtot -0.09
     4        HA3     82    ACE   HH33      1       0.09      1.008   ; qtot 0
     5          C     82    ACE      C      2       0.51     12.011   ; qtot 0.51
     6          O     82    ACE      O      2      -0.51     15.999   ; qtot 0
; residue  82 SER rtp SER  q  0.0
     7        NH1     82    SER      N      3      -0.47     14.007   ; qtot -0.47
     8          H     82    SER     HN      4       0.31      1.008   ; qtot -0.16
     9        CT1     82    SER     CA      5       0.07     12.011   ; qtot -0.09
    10        HB1     82    SER     HA      6       0.09      1.008   ; qtot 0
    11        CT2     82    SER     CB      7       0.05     12.011   ; qtot 0.05
    12        HA2     82    SER    HB1      8       0.09      1.008   ; qtot 0.14
    13        HA2     82    SER    HB2      9       0.09      1.008   ; qtot 0.23
    14        OH1     82    SER     OG     10      -0.66     15.999   ; qtot -0.43
    15          H     82    SER    HG1     11       0.43      1.008   ; qtot 0
    16          C     82    SER      C     12       0.51     12.011   ; qtot 0.51
    17          O     82    SER      O     13      -0.51     15.999   ; qtot 0
; residue  83 SER rtp SER  q  0.0
    18        NH1     83    SER      N     14      -0.47     14.007   ; qtot -0.47
    19          H     83    SER     HN     15       0.31      1.008   ; qtot -0.16
    20        CT1     83    SER     CA     16       0.07     12.011   ; qtot -0.09
    21        HB1     83    SER     HA     17       0.09      1.008   ; qtot 0
    22        CT2     83    SER     CB     18       0.05     12.011   ; qtot 0.05
    23        HA2     83    SER    HB1     19       0.09      1.008   ; qtot 0.14
    24        HA2     83    SER    HB2     20       0.09      1.008   ; qtot 0.23
    25        OH1     83    SER     OG     21      -0.66     15.999   ; qtot -0.43
    26          H     83    SER    HG1     22       0.43      1.008   ; qtot 0
    27          C     83    SER      C     23       0.51     12.011   ; qtot 0.51
    28          O     83    SER      O     24      -0.51     15.999   ; qtot 0
; residue  84 ASN rtp ASN  q  0.0
    29        NH1     84    ASN      N     25      -0.47     14.007   ; qtot -0.47
    30          H     84    ASN     HN     26       0.31      1.008   ; qtot -0.16
    31        CT1     84    ASN     CA     27       0.07     12.011   ; qtot -0.09
    32        HB1     84    ASN     HA     28       0.09      1.008   ; qtot 0
    33        CT2     84    ASN     CB     29      -0.18     12.011   ; qtot -0.18
    34        HA2     84    ASN    HB1     30       0.09      1.008   ; qtot -0.09
    35        HA2     84    ASN    HB2     31       0.09      1.008   ; qtot 0
    36         CC     84    ASN     CG     32       0.55     12.011   ; qtot 0.55
    37          O     84    ASN    OD1     33      -0.55     15.999   ; qtot 0
    38        NH2     84    ASN    ND2     34      -0.62     14.007   ; qtot -0.62
    39          H     84    ASN   HD21     35       0.32      1.008   ; qtot -0.3
    40          H     84    ASN   HD22     36        0.3      1.008   ; qtot 0
    41          C     84    ASN      C     37       0.51     12.011   ; qtot 0.51
    42          O     84    ASN      O     38      -0.51     15.999   ; qtot 0
; residue  85 GLY rtp GLY  q  0.0
    43        NH1     85    GLY      N     39      -0.47     14.007   ; qtot -0.47
    44          H     85    GLY     HN     40       0.31      1.008   ; qtot -0.16
    45        CT2     85    GLY     CA     41      -0.02     12.011   ; qtot -0.18
    46        HB2     85    GLY    HA1     42       0.09      1.008   ; qtot -0.09
    47        HB2     85    GLY    HA2     43       0.09      1.008   ; qtot 0
    48          C     85    GLY      C     44       0.51     12.011   ; qtot 0.51
    49          O     85    GLY      O     45      -0.51     15.999   ; qtot 0
; residue  86 ASN rtp ASN  q  0.0
    50        NH1     86    ASN      N     46      -0.47     14.007   ; qtot -0.47
    51          H     86    ASN     HN     47       0.31      1.008   ; qtot -0.16
    52        CT1     86    ASN     CA     48       0.07     12.011   ; qtot -0.09
    53        HB1     86    ASN     HA     49       0.09      1.008   ; qtot 0
    54        CT2     86    ASN     CB     50      -0.18     12.011   ; qtot -0.18
    55        HA2     86    ASN    HB1     51       0.09      1.008   ; qtot -0.09
    56        HA2     86    ASN    HB2     52       0.09      1.008   ; qtot 0
    57         CC     86    ASN     CG     53       0.55     12.011   ; qtot 0.55
    58          O     86    ASN    OD1     54      -0.55     15.999   ; qtot 0
    59        NH2     86    ASN    ND2     55      -0.62     14.007   ; qtot -0.62
    60          H     86    ASN   HD21     56       0.32      1.008   ; qtot -0.3
    61          H     86    ASN   HD22     57        0.3      1.008   ; qtot 0
    62          C     86    ASN      C     58       0.51     12.011   ; qtot 0.51
    63          O     86    ASN      O     59      -0.51     15.999   ; qtot 0
; residue  87 ALA rtp ALA  q  0.0
    64        NH1     87    ALA      N     60      -0.47     14.007   ; qtot -0.47
    65          H     87    ALA     HN     61       0.31      1.008   ; qtot -0.16
    66        CT1     87    ALA     CA     62       0.07     12.011   ; qtot -0.09
    67        HB1     87    ALA     HA     63       0.09      1.008   ; qtot 0
    68        CT3     87    ALA     CB     64      -0.27     12.011   ; qtot -0.27
    69        HA3     87    ALA    HB1     65       0.09      1.008   ; qtot -0.18
    70        HA3     87    ALA    HB2     66       0.09      1.008   ; qtot -0.09
    71        HA3     87    ALA    HB3     67       0.09      1.008   ; qtot 0
    72         CC     87    ALA      C     68       0.55     12.011   ; qtot 0.55
    73        NH2     87    ALA     NT     69      -0.62    14.0027   ; qtot -0.07
    74          H     87    ALA    HT1     70        0.3      1.008   ; qtot 0.23
    75          H     87    ALA    HT2     71       0.32      1.008   ; qtot 0.55
    76          O     87    ALA      O     72      -0.55    15.9994   ; qtot 0

[ bonds ]
;  ai    aj funct            c0            c1            c2            c3
    1     2     1 
    1     3     1 
    1     4     1 
    1     5     1 
    5     6     1 
    5     7     1 
    7     8     1 
    7     9     1 
    9    10     1 
    9    11     1 
    9    16     1 
   11    12     1 
   11    13     1 
   11    14     1 
   14    15     1 
   16    17     1 
   16    18     1 
   18    19     1 
   18    20     1 
   20    21     1 
   20    22     1 
   20    27     1 
   22    23     1 
   22    24     1 
   22    25     1 
   25    26     1 
   27    28     1 
   27    29     1 
   29    30     1 
   29    31     1 
   31    32     1 
   31    33     1 
   31    41     1 
   33    34     1 
   33    35     1 
   33    36     1 
   36    37     1 
   36    38     1 
   38    39     1 
   38    40     1 
   41    42     1 
   41    43     1 
   43    44     1 
   43    45     1 
   45    46     1 
   45    47     1 
   45    48     1 
   48    49     1 
   48    50     1 
   50    51     1 
   50    52     1 
   52    53     1 
   52    54     1 
   52    62     1 
   54    55     1 
   54    56     1 
   54    57     1 
   57    58     1 
   57    59     1 
   59    60     1 
   59    61     1 
   62    63     1 
   62    64     1 
   64    65     1 
   64    66     1 
   66    67     1 
   66    68     1 
   66    72     1 
   68    69     1 
   68    70     1 
   68    71     1 
   72    73     1 
   72    76     1 
   73    74     1 
   73    75     1 

[ pairs ]
;  ai    aj funct            c0            c1            c2            c3
    1     8     1 
    1     9     1 
    2     6     1 
    2     7     1 
    3     6     1 
    3     7     1 
    4     6     1 
    4     7     1 
    5    10     1 
    5    11     1 
    5    16     1 
    6     8     1 
    6     9     1 
    7    12     1 
    7    13     1 
    7    14     1 
    7    17     1 
    7    18     1 
    8    10     1 
    8    11     1 
    8    16     1 
    9    15     1 
    9    19     1 
    9    20     1 
   10    12     1 
   10    13     1 
   10    14     1 
   10    17     1 
   10    18     1 
   11    17     1 
   11    18     1 
   12    15     1 
   12    16     1 
   13    15     1 
   13    16     1 
   14    16     1 
   16    21     1 
   16    22     1 
   16    27     1 
   17    19     1 
   17    20     1 
   18    23     1 
   18    24     1 
   18    25     1 
   18    28     1 
   18    29     1 
   19    21     1 
   19    22     1 
   19    27     1 
   20    26     1 
   20    30     1 
   20    31     1 
   21    23     1 
   21    24     1 
   21    25     1 
   21    28     1 
   21    29     1 
   22    28     1 
   22    29     1 
   23    26     1 
   23    27     1 
   24    26     1 
   24    27     1 
   25    27     1 
   27    32     1 
   27    33     1 
   27    41     1 
   28    30     1 
   28    31     1 
   29    34     1 
   29    35     1 
   29    36     1 
   29    42     1 
   29    43     1 
   30    32     1 
   30    33     1 
   30    41     1 
   31    37     1 
   31    38     1 
   31    44     1 
   31    45     1 
   32    34     1 
   32    35     1 
   32    36     1 
   32    42     1 
   32    43     1 
   33    39     1 
   33    40     1 
   33    42     1 
   33    43     1 
   34    37     1 
   34    38     1 
   34    41     1 
   35    37     1 
   35    38     1 
   35    41     1 
   36    41     1 
   37    39     1 
   37    40     1 
   41    46     1 
   41    47     1 
   41    48     1 
   42    44     1 
   42    45     1 
   43    49     1 
   43    50     1 
   44    46     1 
   44    47     1 
   44    48     1 
   45    51     1 
   45    52     1 
   46    49     1 
   46    50     1 
   47    49     1 
   47    50     1 
   48    53     1 
   48    54     1 
   48    62     1 
   49    51     1 
   49    52     1 
   50    55     1 
   50    56     1 
   50    57     1 
   50    63     1 
   50    64     1 
   51    53     1 
   51    54     1 
   51    62     1 
   52    58     1 
   52    59     1 
   52    65     1 
   52    66     1 
   53    55     1 
   53    56     1 
   53    57     1 
   53    63     1 
   53    64     1 
   54    60     1 
   54    61     1 
   54    63     1 
   54    64     1 
   55    58     1 
   55    59     1 
   55    62     1 
   56    58     1 
   56    59     1 
   56    62     1 
   57    62     1 
   58    60     1 
   58    61     1 
   62    67     1 
   62    68     1 
   62    72     1 
   63    65     1 
   63    66     1 
   64    69     1 
   64    70     1 
   64    71     1 
   64    73     1 
   64    76     1 
   65    67     1 
   65    68     1 
   65    72     1 
   66    74     1 
   66    75     1 
   67    69     1 
   67    70     1 
   67    71     1 
   67    73     1 
   67    76     1 
   68    73     1 
   68    76     1 
   69    72     1 
   70    72     1 
   71    72     1 
   74    76     1 
   75    76     1 

[ angles ]
;  ai    aj    ak funct            c0            c1            c2            c3
    2     1     3     5 
    2     1     4     5 
    2     1     5     5 
    3     1     4     5 
    3     1     5     5 
    4     1     5     5 
    1     5     6     5 
    1     5     7     5 
    6     5     7     5 
    5     7     8     5 
    5     7     9     5 
    8     7     9     5 
    7     9    10     5 
    7     9    11     5 
    7     9    16     5 
   10     9    11     5 
   10     9    16     5 
   11     9    16     5 
    9    11    12     5 
    9    11    13     5 
    9    11    14     5 
   12    11    13     5 
   12    11    14     5 
   13    11    14     5 
   11    14    15     5 
    9    16    17     5 
    9    16    18     5 
   17    16    18     5 
   16    18    19     5 
   16    18    20     5 
   19    18    20     5 
   18    20    21     5 
   18    20    22     5 
   18    20    27     5 
   21    20    22     5 
   21    20    27     5 
   22    20    27     5 
   20    22    23     5 
   20    22    24     5 
   20    22    25     5 
   23    22    24     5 
   23    22    25     5 
   24    22    25     5 
   22    25    26     5 
   20    27    28     5 
   20    27    29     5 
   28    27    29     5 
   27    29    30     5 
   27    29    31     5 
   30    29    31     5 
   29    31    32     5 
   29    31    33     5 
   29    31    41     5 
   32    31    33     5 
   32    31    41     5 
   33    31    41     5 
   31    33    34     5 
   31    33    35     5 
   31    33    36     5 
   34    33    35     5 
   34    33    36     5 
   35    33    36     5 
   33    36    37     5 
   33    36    38     5 
   37    36    38     5 
   36    38    39     5 
   36    38    40     5 
   39    38    40     5 
   31    41    42     5 
   31    41    43     5 
   42    41    43     5 
   41    43    44     5 
   41    43    45     5 
   44    43    45     5 
   43    45    46     5 
   43    45    47     5 
   43    45    48     5 
   46    45    47     5 
   46    45    48     5 
   47    45    48     5 
   45    48    49     5 
   45    48    50     5 
   49    48    50     5 
   48    50    51     5 
   48    50    52     5 
   51    50    52     5 
   50    52    53     5 
   50    52    54     5 
   50    52    62     5 
   53    52    54     5 
   53    52    62     5 
   54    52    62     5 
   52    54    55     5 
   52    54    56     5 
   52    54    57     5 
   55    54    56     5 
   55    54    57     5 
   56    54    57     5 
   54    57    58     5 
   54    57    59     5 
   58    57    59     5 
   57    59    60     5 
   57    59    61     5 
   60    59    61     5 
   52    62    63     5 
   52    62    64     5 
   63    62    64     5 
   62    64    65     5 
   62    64    66     5 
   65    64    66     5 
   64    66    67     5 
   64    66    68     5 
   64    66    72     5 
   67    66    68     5 
   67    66    72     5 
   68    66    72     5 
   66    68    69     5 
   66    68    70     5 
   66    68    71     5 
   69    68    70     5 
   69    68    71     5 
   70    68    71     5 
   66    72    73     5 
   66    72    76     5 
   73    72    76     5 
   72    73    74     5 
   72    73    75     5 
   74    73    75     5 

[ dihedrals ]
;  ai    aj    ak    al funct            c0            c1            c2            c3            c4            c5
    2     1     5     6     9 
    2     1     5     7     9 
    3     1     5     6     9 
    3     1     5     7     9 
    4     1     5     6     9 
    4     1     5     7     9 
    1     5     7     8     9 
    1     5     7     9     9 
    6     5     7     8     9 
    6     5     7     9     9 
    5     7     9    10     9 
    5     7     9    11     9 
    5     7     9    16     9 
    8     7     9    10     9 
    8     7     9    11     9 
    8     7     9    16     9 
    7     9    11    12     9 
    7     9    11    13     9 
    7     9    11    14     9 
   10     9    11    12     9 
   10     9    11    13     9 
   10     9    11    14     9 
   16     9    11    12     9 
   16     9    11    13     9 
   16     9    11    14     9 
    7     9    16    17     9 
    7     9    16    18     9 
   10     9    16    17     9 
   10     9    16    18     9 
   11     9    16    17     9 
   11     9    16    18     9 
    9    11    14    15     9 
   12    11    14    15     9 
   13    11    14    15     9 
    9    16    18    19     9 
    9    16    18    20     9 
   17    16    18    19     9 
   17    16    18    20     9 
   16    18    20    21     9 
   16    18    20    22     9 
   16    18    20    27     9 
   19    18    20    21     9 
   19    18    20    22     9 
   19    18    20    27     9 
   18    20    22    23     9 
   18    20    22    24     9 
   18    20    22    25     9 
   21    20    22    23     9 
   21    20    22    24     9 
   21    20    22    25     9 
   27    20    22    23     9 
   27    20    22    24     9 
   27    20    22    25     9 
   18    20    27    28     9 
   18    20    27    29     9 
   21    20    27    28     9 
   21    20    27    29     9 
   22    20    27    28     9 
   22    20    27    29     9 
   20    22    25    26     9 
   23    22    25    26     9 
   24    22    25    26     9 
   20    27    29    30     9 
   20    27    29    31     9 
   28    27    29    30     9 
   28    27    29    31     9 
   27    29    31    32     9 
   27    29    31    33     9 
   27    29    31    41     9 
   30    29    31    32     9 
   30    29    31    33     9 
   30    29    31    41     9 
   29    31    33    34     9 
   29    31    33    35     9 
   29    31    33    36     9 
   32    31    33    34     9 
   32    31    33    35     9 
   32    31    33    36     9 
   41    31    33    34     9 
   41    31    33    35     9 
   41    31    33    36     9 
   29    31    41    42     9 
   29    31    41    43     9 
   32    31    41    42     9 
   32    31    41    43     9 
   33    31    41    42     9 
   33    31    41    43     9 
   31    33    36    37     9 
   31    33    36    38     9 
   34    33    36    37     9 
   34    33    36    38     9 
   35    33    36    37     9 
   35    33    36    38     9 
   33    36    38    39     9 
   33    36    38    40     9 
   37    36    38    39     9 
   37    36    38    40     9 
   31    41    43    44     9 
   31    41    43    45     9 
   42    41    43    44     9 
   42    41    43    45     9 
   41    43    45    46     9 
   41    43    45    47     9 
   41    43    45    48     9 
   44    43    45    46     9 
   44    43    45    47     9 
   44    43    45    48     9 
   43    45    48    49     9 
   43    45    48    50     9 
   46    45    48    49     9 
   46    45    48    50     9 
   47    45    48    49     9 
   47    45    48    50     9 
   45    48    50    51     9 
   45    48    50    52     9 
   49    48    50    51     9 
   49    48    50    52     9 
   48    50    52    53     9 
   48    50    52    54     9 
   48    50    52    62     9 
   51    50    52    53     9 
   51    50    52    54     9 
   51    50    52    62     9 
   50    52    54    55     9 
   50    52    54    56     9 
   50    52    54    57     9 
   53    52    54    55     9 
   53    52    54    56     9 
   53    52    54    57     9 
   62    52    54    55     9 
   62    52    54    56     9 
   62    52    54    57     9 
   50    52    62    63     9 
   50    52    62    64     9 
   53    52    62    63     9 
   53    52    62    64     9 
   54    52    62    63     9 
   54    52    62    64     9 
   52    54    57    58     9 
   52    54    57    59     9 
   55    54    57    58     9 
   55    54    57    59     9 
   56    54    57    58     9 
   56    54    57    59     9 
   54    57    59    60     9 
   54    57    59    61     9 
   58    57    59    60     9 
   58    57    59    61     9 
   52    62    64    65     9 
   52    62    64    66     9 
   63    62    64    65     9 
   63    62    64    66     9 
   62    64    66    67     9 
   62    64    66    68     9 
   62    64    66    72     9 
   65    64    66    67     9 
   65    64    66    68     9 
   65    64    66    72     9 
   64    66    68    69     9 
   64    66    68    70     9 
   64    66    68    71     9 
   67    66    68    69     9 
   67    66    68    70     9 
   67    66    68    71     9 
   72    66    68    69     9 
   72    66    68    70     9 
   72    66    68    71     9 
   64    66    72    73     9 
   64    66    72    76     9 
   67    66    72    73     9 
   67    66    72    76     9 
   68    66    72    73     9 
   68    66    72    76     9 
   66    72    73    74     9 
   66    72    73    75     9 
   76    72    73    74     9 
   76    72    73    75     9 

[ dihedrals ]
;  ai    aj    ak    al funct            c0            c1            c2            c3
    5     1     7     6     2 
    7     5     9     8     2 
   16     9    18    17     2 
   18    16    20    19     2 
   27    20    29    28     2 
   29    27    31    30     2 
   36    33    38    37     2 
   36    38    33    37     2 
   38    36    40    39     2 
   38    36    39    40     2 
   41    31    43    42     2 
   43    41    45    44     2 
   48    45    50    49     2 
   50    48    52    51     2 
   57    54    59    58     2 
   57    59    54    58     2 
   59    57    61    60     2 
   59    57    60    61     2 
   62    52    64    63     2 
   64    62    66    65     2 
   72    66    73    76     2 
   72    73    66    76     2 
   73    72    75    74     2 
   73    72    74    75     2 

[ cmap ]
;  ai    aj    ak    al    am funct
    5     7     9    16    18     1 
   16    18    20    27    29     1 
   27    29    31    41    43     1 
   41    43    45    48    50     1 
   48    50    52    62    64     1 

; Include Position restraint file
#ifdef POSRES
#include "posre.itp"
#endif

; Include water topology
#include "charmm36-nov2018.ff/tip3p.itp"

#ifdef POSRES_WATER
; Position restraint for each water oxygen
[ position_restraints ]
;  i funct       fcx        fcy        fcz
   1    1       1000       1000       1000
#endif

; Include topology for ions
#include "charmm36-nov2018.ff/ions.itp"

[ system ]
; Name
Protein in water

[ molecules ]
; Compound        #mols
Protein             1
SOL         1269
NA               4
CL               4
