Protein in water
 3034
   82ACE    CH3    1   2.904   2.716   2.808 -0.2830  0.3079 -0.0506
   82ACE   HH31    2   2.954   2.621   2.839  0.5445  0.8399  0.2813
   82ACE   HH32    3   2.893   2.713   2.697 -0.5431 -1.6427 -0.0176
   82ACE   HH33    4   2.971   2.801   2.833  3.1774 -2.5982  1.4061
   82ACE      C    5   2.771   2.726   2.874 -0.2596 -0.5368 -0.0154
   82ACE      O    6   2.749   2.800   2.973 -0.0595  0.3445  0.0912
   82SER      N    7   2.669   2.644   2.830 -0.2379  0.1744  0.3459
   82SER     HN    8   2.704   2.591   2.753 -0.0518 -1.5047  1.5329
   82SER     CA    9   2.537   2.616   2.885  0.2263  0.8812  0.2550
   82SER     HA   10   2.481   2.708   2.890 -0.2311  0.6265  0.0193
   82SER     CB   11   2.449   2.524   2.792 -0.2775  0.3247  0.2113
   82SER    HB1   12   2.450   2.572   2.692 -0.8434 -3.8660 -2.0088
   82SER    HB2   13   2.502   2.427   2.779  1.1476  1.1804 -0.6454
   82SER     OG   14   2.317   2.508   2.839 -0.1713 -0.1472  0.5914
   82SER    HG1   15   2.266   2.586   2.813  0.3010  0.0653  0.2762
   82SER      C   16   2.548   2.568   3.021 -0.3560  0.5275 -0.2712
   82SER      O   17   2.616   2.471   3.048 -0.3357 -0.2643  0.5098
   83SER      N   18   2.469   2.627   3.105  0.3422 -0.2537  0.1181
   83SER     HN   19   2.420   2.712   3.084 -1.0236 -0.8653  0.7180
   83SER     CA   20   2.454   2.591   3.245  0.0881 -0.0320 -0.1988
   83SER     HA   21   2.542   2.537   3.275  0.5366  0.3529 -0.7740
   83SER     CB   22   2.443   2.719   3.340 -0.7727 -0.0043  0.4672
   83SER    HB1   23   2.437   2.686   3.446 -1.7082 -0.0655  0.4034
   83SER    HB2   24   2.541   2.768   3.319 -1.7624  0.8383 -2.8026
   83SER     OG   25   2.344   2.808   3.289  0.0138  0.5066 -0.5590
   83SER    HG1   26   2.257   2.766   3.295 -0.0122  0.5053 -0.9184
   83SER      C   27   2.334   2.496   3.272 -0.3130 -0.0555 -0.5781
   83SER      O   28   2.311   2.462   3.391  0.6638  0.5654 -0.4424
   84ASN      N   29   2.277   2.428   3.166 -0.0772 -0.3271  0.1797
   84ASN     HN   30   2.303   2.456   3.073  3.2652  1.0363  1.3660
   84ASN     CA   31   2.163   2.343   3.163  0.3026 -0.0080  0.4582
   84ASN     HA   32   2.085   2.404   3.206  1.8490  2.9735 -0.6727
   84ASN     CB   33   2.151   2.289   3.016  0.2735 -0.1238 -0.6000
   84ASN    HB1   34   2.139   2.373   2.944 -0.4540  1.9007  1.7587
   84ASN    HB2   35   2.244   2.235   2.987  0.0508 -1.4337  0.9677
   84ASN     CG   36   2.020   2.211   2.999 -0.0029 -0.4918  1.1197
   84ASN    OD1   37   1.913   2.238   3.056  0.0739 -0.4395 -0.2934
   84ASN    ND2   38   2.023   2.111   2.909 -0.1310 -0.1711 -0.3054
   84ASN   HD21   39   2.103   2.093   2.851 -0.5231 -0.6479 -0.7153
   84ASN   HD22   40   1.935   2.069   2.887  0.1586 -1.1552  0.3320
   84ASN      C   41   2.169   2.213   3.256  0.6262 -0.1273  0.6454
   84ASN      O   42   2.074   2.172   3.322 -0.2077 -0.3938  0.0771
   85GLY      N   43   2.282   2.139   3.252 -0.2535  0.6844 -0.1119
   85GLY     HN   44   2.364   2.185   3.220 -0.5482  1.3532  0.0653
   85GLY     CA   45   2.296   2.003   3.305  0.1493 -0.2348  0.0354
   85GLY    HA1   46   2.383   1.951   3.265  0.6854  0.5041  0.2306
   85GLY    HA2   47   2.291   2.021   3.411 -1.9086  0.3324 -0.1152
   85GLY      C   48   2.175   1.913   3.265 -0.2881  0.1478 -0.1134
   85GLY      O   49   2.125   1.906   3.153 -0.0105  0.3807  0.5255
   86ASN      N   50   2.124   1.842   3.365  0.7495 -0.0643 -0.0835
   86ASN     HN   51   2.139   1.875   3.458  1.7719  2.4395 -1.0530
   86ASN     CA   52   2.040   1.728   3.344  0.8956  0.2289 -0.0454
   86ASN     HA   53   2.020   1.723   3.237 -3.0296  1.9636  0.4304
   86ASN     CB   54   2.092   1.597   3.420  0.6546 -0.4484  0.1631
   86ASN    HB1   55   2.088   1.617   3.529  0.3444  0.8235 -0.0730
   86ASN    HB2   56   2.031   1.509   3.388 -1.4211  1.2549 -0.7874
   86ASN     CG   57   2.236   1.566   3.385  0.2055 -0.0870  0.1142
   86ASN    OD1   58   2.278   1.604   3.277  0.0687 -0.6770 -0.4294
   86ASN    ND2   59   2.311   1.505   3.477  0.4313 -0.3480 -0.4003
   86ASN   HD21   60   2.269   1.465   3.559 -1.7981 -1.9933 -2.2462
   86ASN   HD22   61   2.409   1.497   3.463  0.3582  0.1354 -1.2807
   86ASN      C   62   1.900   1.761   3.394  0.7208  0.6063 -0.7915
   86ASN      O   63   1.814   1.671   3.411  0.5765 -0.2318  0.1264
   87ALA      N   64   1.872   1.887   3.418 -0.3638  0.0016 -0.2709
   87ALA     HN   65   1.936   1.954   3.381  0.8637 -0.7374  0.4649
   87ALA     CA   66   1.757   1.933   3.489  0.9336 -1.0038 -0.1654
   87ALA     HA   67   1.736   1.870   3.575 -1.0565 -0.3293 -0.0991
   87ALA     CB   68   1.764   2.089   3.533  0.0402 -0.2223  0.0523
   87ALA    HB1   69   1.849   2.101   3.604 -0.9552  1.9927  0.9854
   87ALA    HB2   70   1.790   2.154   3.447 -0.7634  0.5962  0.4193
   87ALA    HB3   71   1.675   2.126   3.589  0.3715  0.6223  0.0414
   87ALA      C   72   1.626   1.915   3.402 -0.3369 -1.0598 -0.1764
   87ALA     NT   73   1.633   1.961   3.271  0.0273 -0.1698 -0.1284
   87ALA    HT1   74   1.720   1.990   3.230 -0.4399  1.0929 -0.2947
   87ALA    HT2   75   1.556   1.941   3.210  0.3548  1.2255 -1.0505
   87ALA      O   76   1.524   1.861   3.454  0.1937 -0.9032 -0.0428
   88SOL     OW   77   0.748   0.836   2.149 -0.0337 -0.2688 -0.1513
   88SOL    HW1   78   0.746   0.758   2.205  0.9182 -0.4411 -0.3411
   88SOL    HW2   79   0.810   0.895   2.192 -1.6062  0.9104  0.6320
   89SOL     OW   80   2.653   1.334   0.120 -0.3054  0.2445  0.1213
   89SOL    HW1   81   2.652   1.420   0.162 -2.7702  0.6906 -0.6607
   89SOL    HW2   82   2.576   1.289   0.154  1.1512 -1.8989  0.8380
   90SOL     OW   83   2.524   2.278   2.210 -0.5760  0.4441  0.1904
   90SOL    HW1   84   2.491   2.336   2.142  0.7113  0.9832 -0.0033
   90SOL    HW2   85   2.602   2.239   2.172 -1.8271 -2.0824 -0.0108
   91SOL     OW   86   1.578   0.532   0.092  0.1263 -0.0423 -0.2918
   91SOL    HW1   87   1.489   0.502   0.071  0.5391 -0.6760 -1.1574
   91SOL    HW2   88   1.575   0.548   0.186 -0.9728  0.1610 -0.3374
   92SOL     OW   89   0.313   1.879   2.674  0.1989  0.3017  0.9848
   92SOL    HW1   90   0.289   1.873   2.767 -2.4770 -0.7020  0.3386
   92SOL    HW2   91   0.374   1.807   2.660 -1.0833 -0.9447  1.5660
   93SOL     OW   92   1.076   1.774   2.336 -0.2035 -0.5624 -0.4848
   93SOL    HW1   93   1.103   1.865   2.321  1.4773 -0.8776  0.3566
   93SOL    HW2   94   1.133   1.723   2.279  0.8586 -1.2335  1.0913
   94SOL     OW   95   0.869   1.931   0.370 -0.4873 -0.2773 -0.1290
   94SOL    HW1   96   0.937   1.864   0.368  0.7228  0.8786  0.6159
   94SOL    HW2   97   0.834   1.928   0.459 -0.6982 -0.1958 -0.2084
   95SOL     OW   98   0.765   1.287   0.229 -0.0781  0.6804  0.1700
   95SOL    HW1   99   0.803   1.258   0.312 -1.1692  0.1561  0.5140
   95SOL    HW2  100   0.698   1.222   0.210  1.2351 -0.1210 -1.9969
   96SOL     OW  101   0.688   3.048   2.849  0.3845  0.2397  0.3342
   96SOL    HW1  102   0.611   2.995   2.868  0.7096 -0.9198 -1.3410
   96SOL    HW2  103   0.669   3.090   2.766  2.1403 -1.3724 -0.9748
   97SOL     OW  104   1.891   2.509   2.864 -0.0179 -0.1357 -0.0728
   97SOL    HW1  105   1.956   2.542   2.802 -0.2823 -0.3624 -0.4734
   97SOL    HW2  106   1.849   2.436   2.819 -0.6680  0.1176  0.1101
   98SOL     OW  107   1.251   2.703   0.790  1.0421 -0.0114 -0.1596
   98SOL    HW1  108   1.238   2.748   0.707 -0.1014 -0.1073 -0.0487
   98SOL    HW2  109   1.303   2.764   0.843 -0.4731  1.2208 -0.0118
   99SOL     OW  110   0.954   2.769   1.821  0.5965 -0.3777 -0.1192
   99SOL    HW1  111   0.869   2.772   1.776  0.2692  0.3191  0.5157
   99SOL    HW2  112   0.996   2.852   1.797  1.1949 -0.8213 -0.6105
  100SOL     OW  113   2.156   0.103   0.329  0.0444  0.5007  0.3760
  100SOL    HW1  114   2.225   0.038   0.315 -1.4153 -0.6538 -2.2231
  100SOL    HW2  115   2.165   0.164   0.256  0.2363  2.2326  1.7690
  101SOL     OW  116   0.893   0.279   2.817 -0.3521  0.3351  0.0629
  101SOL    HW1  117   0.892   0.221   2.893  1.5227  2.7540  2.1019
  101SOL    HW2  118   0.832   0.350   2.840  0.9051  1.5542 -0.2170
  102SOL     OW  119   1.885   1.833   0.993 -0.2341  0.2742 -0.2886
  102SOL    HW1  120   1.970   1.873   1.011 -0.6686  1.9468 -1.7632
  102SOL    HW2  121   1.904   1.768   0.925  0.2131 -1.0543  1.0444
  103SOL     OW  122   0.607   1.321   2.738  0.0580  0.3198 -0.3700
  103SOL    HW1  123   0.701   1.339   2.731  0.1679 -0.4538 -0.9974
  103SOL    HW2  124   0.577   1.379   2.808  0.3699  3.0006 -2.3015
  104SOL     OW  125   1.795   0.324   0.819 -0.5970  0.1645  0.8068
  104SOL    HW1  126   1.805   0.272   0.898  0.5274  0.0639  0.6047
  104SOL    HW2  127   1.842   0.406   0.837 -0.5672  0.2535  0.3488
  105SOL     OW  128   2.776   0.214   1.152 -0.6441  0.1650  0.2142
  105SOL    HW1  129   2.696   0.252   1.116  0.9238  2.7728 -0.7362
  105SOL    HW2  130   2.747   0.172   1.233 -3.3358 -1.0898 -1.2327
  106SOL     OW  131   1.837   0.845   2.124 -0.5153 -0.2400 -0.0429
  106SOL    HW1  132   1.891   0.800   2.059  0.0675 -2.4615  1.8180
  106SOL    HW2  133   1.891   0.917   2.155 -0.5572  0.4631 -1.5173
  107SOL     OW  134   0.584   0.912   2.959  0.1329 -0.4097 -0.1221
  107SOL    HW1  135   0.559   0.944   2.873 -1.4235  0.1802  0.5098
  107SOL    HW2  136   0.636   0.983   2.996 -1.1357  0.3553  0.2752
  108SOL     OW  137   0.920   2.258   0.066 -0.4075 -0.0747  0.4251
  108SOL    HW1  138   0.838   2.269   0.017 -0.1469 -1.8608 -0.5045
  108SOL    HW2  139   0.892   2.234   0.154 -0.8866  0.0782  0.3202
  109SOL     OW  140   0.898   2.415   1.812 -1.1976 -0.0884 -0.2903
  109SOL    HW1  141   0.849   2.474   1.754 -0.4474  1.1261  0.2577
  109SOL    HW2  142   0.894   2.330   1.769 -1.0516  0.6709 -1.9085
  110SOL     OW  143   0.928   1.565   1.398  0.3206 -0.3946  0.4153
  110SOL    HW1  144   0.983   1.604   1.330 -0.4949  0.7169  0.3667
  110SOL    HW2  145   0.872   1.637   1.428 -0.8430 -1.3873  0.7257
  111SOL     OW  146   0.498   1.259   3.029 -0.0723  0.1929 -0.1241
  111SOL    HW1  147   0.510   1.355   3.029 -0.0106  0.2555  2.2909
  111SOL    HW2  148   0.588   1.225   3.030  0.0075  0.2655  2.1313
  112SOL     OW  149   1.459   2.974   2.833 -0.0140 -0.2572  0.4000
  112SOL    HW1  150   1.477   2.930   2.917  0.9557 -2.3669 -0.8086
  112SOL    HW2  151   1.546   2.986   2.794 -0.3259  2.1774  0.3402
  113SOL     OW  152   1.991   2.978   1.406 -0.0202  0.0908  0.0856
  113SOL    HW1  153   2.002   2.883   1.409  3.2176  0.3756  0.2517
  113SOL    HW2  154   1.990   2.999   1.313  0.0562 -0.0356  0.0560
  114SOL     OW  155   1.724   1.654   1.452  1.0542 -0.4862  0.2744
  114SOL    HW1  156   1.747   1.619   1.538  1.0962 -0.7392  0.1632
  114SOL    HW2  157   1.634   1.624   1.438  0.2081  1.4520  1.1978
  115SOL     OW  158   0.281   0.112   1.326  0.0888 -0.3290 -0.6715
  115SOL    HW1  159   0.234   0.094   1.408  0.1711  2.4403  0.0700
  115SOL    HW2  160   0.216   0.152   1.269  0.7500  0.5898 -0.8065
  116SOL     OW  161   2.980   0.925   2.081  0.3616 -0.6672 -0.0924
  116SOL    HW1  162   2.901   0.978   2.087  0.2919 -0.8751  1.1007
  116SOL    HW2  163   2.975   0.865   2.155  2.2480  0.1807  0.8111
  117SOL     OW  164   1.166   0.324   0.463 -0.0783 -0.2773  0.2418
  117SOL    HW1  165   1.117   0.278   0.395  0.6674 -1.1092  0.2394
  117SOL    HW2  166   1.257   0.318   0.434  0.0786  0.8308  0.4785
  118SOL     OW  167   3.040   2.055   0.629  0.2127 -0.8452 -0.4491
  118SOL    HW1  168   2.994   2.060   0.713  2.3606  0.8723  0.7158
  118SOL    HW2  169   2.971   2.035   0.566 -1.8656  0.0441  1.4007
  119SOL     OW  170   2.216   2.942   1.704 -0.1184  0.6584  0.1874
  119SOL    HW1  171   2.237   2.986   1.621 -2.0537  0.9722 -0.1931
  119SOL    HW2  172   2.183   3.013   1.760 -1.5295  0.0160  0.2078
  120SOL     OW  173   0.140   2.214   1.293 -0.4399  0.0761  0.2702
  120SOL    HW1  174   0.077   2.281   1.268 -0.7679 -0.1238  0.5646
  120SOL    HW2  175   0.157   2.166   1.212 -1.0636 -0.2043  0.2992
  121SOL     OW  176   1.006   2.437   1.466 -0.3080  0.6466  0.5279
  121SOL    HW1  177   1.018   2.413   1.374 -1.9487  0.8208  0.2356
  121SOL    HW2  178   1.080   2.495   1.485 -0.7064  1.7772 -1.1174
  122SOL     OW  179   1.540   0.432   1.219 -0.1618  0.0887  0.4440
  122SOL    HW1  180   1.512   0.472   1.302  1.0118  2.1184 -0.0670
  122SOL    HW2  181   1.634   0.422   1.228 -0.0148  0.3860 -0.6592
  123SOL     OW  182   0.720   3.024   0.275  0.1582  0.9089  0.1506
  123SOL    HW1  183   0.733   2.971   0.197  0.7391  0.5600  0.4732
  123SOL    HW2  184   0.656   2.975   0.327  0.1659  0.8763  0.1293
  124SOL     OW  185   0.561   1.921   2.911  0.1833  0.4486  0.0319
  124SOL    HW1  186   0.622   1.959   2.974  1.0756 -1.3469  0.2954
  124SOL    HW2  187   0.586   1.960   2.827  3.1608 -1.7443 -0.2574
  125SOL     OW  188   1.261   1.491   2.522 -0.1510  0.4505 -0.1790
  125SOL    HW1  189   1.281   1.573   2.568 -1.7623  0.5160  0.4437
  125SOL    HW2  190   1.232   1.431   2.591  0.7907 -0.6081 -0.6588
  126SOL     OW  191   1.314   1.012   0.288 -0.1016 -0.3480  0.5859
  126SOL    HW1  192   1.394   0.984   0.332 -0.1191 -0.8574  0.2998
  126SOL    HW2  193   1.344   1.062   0.212  0.0542 -2.7058 -1.0303
  127SOL     OW  194   1.486   0.547   0.981  0.4666  1.0901  0.3086
  127SOL    HW1  195   1.509   0.509   1.066  1.6009  1.9835  0.4264
  127SOL    HW2  196   1.402   0.591   0.998 -0.8281 -1.1588  0.1863
  128SOL     OW  197   0.318   2.386   1.087  0.4633  0.4947  0.0642
  128SOL    HW1  198   0.283   2.420   1.004 -1.3426  0.7352  0.8808
  128SOL    HW2  199   0.378   2.317   1.060 -0.0874  0.5492 -1.4504
  129SOL     OW  200   2.376   2.990   2.167  0.3169 -0.1967 -0.3853
  129SOL    HW1  201   2.362   2.917   2.106  0.5448  0.6017 -1.4066
  129SOL    HW2  202   2.469   3.010   2.160 -0.0763  1.3639 -1.4752
  130SOL     OW  203   1.733   2.070   1.511  0.8739  0.9067  0.1169
  130SOL    HW1  204   1.713   2.137   1.446  0.1811  1.8469  1.2505
  130SOL    HW2  205   1.650   2.023   1.524  1.0559  0.5983  0.1759
  131SOL     OW  206   0.173   0.794   2.348 -0.0186  0.4098 -0.1371
  131SOL    HW1  207   0.211   0.818   2.264 -2.2782 -0.1274 -1.3755
  131SOL    HW2  208   0.164   0.876   2.395 -1.4118  1.1434 -1.6153
  132SOL     OW  209   0.869   2.979   2.585 -0.0303 -0.6592 -0.4579
  132SOL    HW1  210   0.892   2.961   2.494 -1.6630  1.2099 -1.3059
  132SOL    HW2  211   0.791   3.034   2.580  0.5160  0.4824  2.0394
  133SOL     OW  212   0.521   0.584   0.546  0.3016 -0.3120 -0.2288
  133SOL    HW1  213   0.454   0.592   0.615  1.3041 -0.0797  0.7379
  133SOL    HW2  214   0.494   0.647   0.480  0.7314  1.3920  1.1434
  134SOL     OW  215   2.122   3.055   2.816 -0.0982  0.0342  0.0613
  134SOL    HW1  216   2.112   3.134   2.763 -0.8855  0.1107  0.3070
  134SOL    HW2  217   2.205   3.067   2.862 -0.1926  0.6963  0.0622
  135SOL     OW  218   2.051   0.591   0.001  0.6523  0.1284 -0.1859
  135SOL    HW1  219   2.055   0.498  -0.022  0.1575  0.3429 -1.1903
  135SOL    HW2  220   2.136   0.626  -0.023  0.2445  0.2858 -1.4713
  136SOL     OW  221   3.113   0.186   1.232 -0.1248  0.2248  0.1455
  136SOL    HW1  222   3.108   0.113   1.170 -1.4218 -0.4366  0.9829
  136SOL    HW2  223   3.040   0.243   1.207  1.5002  1.8391 -1.1744
  137SOL     OW  224   0.304   1.185   2.615  0.2166 -0.1296 -0.1825
  137SOL    HW1  225   0.242   1.215   2.681  1.2011  0.6639  0.4126
  137SOL    HW2  226   0.315   1.259   2.556  0.3286 -0.3947 -0.5001
  138SOL     OW  227   0.466   2.137   1.061 -0.1041  0.6867  0.1922
  138SOL    HW1  228   0.467   2.113   1.153 -2.6058 -0.9870 -0.1377
  138SOL    HW2  229   0.492   2.058   1.014  0.4016  1.2959 -0.5957
  139SOL     OW  230   0.130   0.836   1.733 -0.1983 -0.4669 -0.1386
  139SOL    HW1  231   0.136   0.925   1.698 -2.4160 -0.8757 -1.8166
  139SOL    HW2  232   0.078   0.788   1.668  0.1655 -2.7589  1.1533
  140SOL     OW  233   0.903   3.045   0.500  0.1816  0.2161  0.0465
  140SOL    HW1  234   0.853   3.039   0.419 -0.0967 -1.6949  0.2952
  140SOL    HW2  235   0.862   2.980   0.558 -0.2172  2.1342  2.0765
  141SOL     OW  236   0.825   1.832   0.106 -0.2719  0.5107 -0.1925
  141SOL    HW1  237   0.833   1.859   0.015 -2.7935  2.7929  0.1320
  141SOL    HW2  238   0.849   1.910   0.156  2.3260 -1.0616  1.2348
  142SOL     OW  239   3.050   3.032   1.540 -0.0154 -0.3900  0.4679
  142SOL    HW1  240   3.090   3.111   1.575  0.1393 -1.2649  2.3540
  142SOL    HW2  241   2.957   3.040   1.561  0.2340 -1.4102  2.1956
  143SOL     OW  242   2.062   0.975   2.482 -0.1658 -0.2780  0.0219
  143SOL    HW1  243   2.045   1.032   2.556 -2.3216 -0.5520 -0.2102
  143SOL    HW2  244   2.134   0.919   2.511 -0.3732  0.2089  1.5608
  144SOL     OW  245   0.298   1.363   2.424 -0.0988 -0.0430  0.5753
  144SOL    HW1  246   0.211   1.400   2.410  0.3484  0.8128 -0.0966
  144SOL    HW2  247   0.308   1.299   2.353  0.3154  0.8264 -0.1773
  145SOL     OW  248   2.951   2.716   2.278 -0.4564  0.0369  0.3588
  145SOL    HW1  249   2.976   2.778   2.347  0.9723 -0.2719  0.1544
  145SOL    HW2  250   2.905   2.646   2.324 -1.3843  0.8429  0.6993
  146SOL     OW  251   0.638   0.080   0.009 -0.6421 -0.1397 -0.5240
  146SOL    HW1  252   0.725   0.064  -0.028  0.0998  0.6506  0.8092
  146SOL    HW2  253   0.602   0.151  -0.043  0.4012  0.9870  0.2554
  147SOL     OW  254   2.869   1.103   0.310 -0.2615 -0.2550 -0.5113
  147SOL    HW1  255   2.884   1.029   0.368 -0.8850 -1.2514 -1.5735
  147SOL    HW2  256   2.778   1.093   0.281 -0.9196  1.8692  0.6129
  148SOL     OW  257   0.883   0.439   2.294 -0.2284  0.1381 -0.1272
  148SOL    HW1  258   0.852   0.446   2.384 -0.7390  0.2180 -0.3099
  148SOL    HW2  259   0.978   0.451   2.301 -0.2350 -0.0929  0.4275
  149SOL     OW  260   1.917   1.813   1.638  0.2667 -0.3668  0.5705
  149SOL    HW1  261   1.873   1.767   1.711  0.4479 -2.0271 -0.3166
  149SOL    HW2  262   2.003   1.770   1.632  0.1832 -0.3696 -0.7185
  150SOL     OW  263   0.520   0.258   1.214  0.5944 -0.0420  0.3056
  150SOL    HW1  264   0.474   0.334   1.179  0.0624 -0.4926  0.0166
  150SOL    HW2  265   0.451   0.200   1.246  1.0417  0.0872  1.5685
  151SOL     OW  266   2.809   0.078   1.401 -0.6604 -0.2554  0.5905
  151SOL    HW1  267   2.783   0.088   1.492 -1.2044 -1.4756  0.5953
  151SOL    HW2  268   2.776  -0.009   1.376  0.9265 -0.6485 -0.2746
  152SOL     OW  269   2.107   2.089   0.485  0.0229  0.4033 -0.2515
  152SOL    HW1  270   2.069   2.154   0.544 -0.6684 -0.7735  0.6437
  152SOL    HW2  271   2.103   2.130   0.398 -2.2970  0.7781 -0.0263
  153SOL     OW  272   0.244   2.417   2.513  0.1682 -0.1480  0.1664
  153SOL    HW1  273   0.255   2.322   2.525  2.0081 -0.0136 -0.1011
  153SOL    HW2  274   0.298   2.455   2.583  1.3650  0.6695 -1.1502
  154SOL     OW  275   2.192   2.656   1.715  0.2089  0.2203 -0.1834
  154SOL    HW1  276   2.209   2.750   1.720 -1.5383  0.4956  1.8581
  154SOL    HW2  277   2.223   2.630   1.628  0.7959  2.6533 -0.7537
  155SOL     OW  278   1.326   0.775   2.507  0.0454  0.8160 -0.4471
  155SOL    HW1  279   1.407   0.736   2.541 -0.7832 -1.3937 -0.8935
  155SOL    HW2  280   1.343   0.786   2.413 -0.3463 -0.1464 -0.6362
  156SOL     OW  281   0.980   2.250   0.872 -0.8873  0.5957  0.2650
  156SOL    HW1  282   0.974   2.219   0.782 -3.1551  2.1913 -0.2213
  156SOL    HW2  283   1.026   2.334   0.865 -0.2503  0.3019  0.7522
  157SOL     OW  284   2.973   0.877   0.433  0.4203  0.4465  0.1053
  157SOL    HW1  285   2.993   0.914   0.519 -0.8165 -1.5100  1.3119
  157SOL    HW2  286   3.040   0.810   0.418  0.6669  0.8154 -0.5113
  158SOL     OW  287   1.419   0.818   2.232 -0.0943  0.8508 -0.1958
  158SOL    HW1  288   1.373   0.836   2.150  2.4322 -1.6085 -2.3699
  158SOL    HW2  289   1.500   0.869   2.225  0.2523  0.4469  0.6837
  159SOL     OW  290   2.982   0.826   2.966 -0.2964  0.0063 -0.4747
  159SOL    HW1  291   2.939   0.892   2.912  0.3347  0.1744 -0.7773
  159SOL    HW2  292   3.025   0.876   3.035 -0.8814 -0.1890  0.0465
  160SOL     OW  293   0.356   1.129   2.289 -0.6727 -0.7220 -0.3342
  160SOL    HW1  294   0.268   1.117   2.326 -0.2535  1.5700  1.6510
  160SOL    HW2  295   0.402   1.048   2.310 -1.8889 -1.4086 -0.1804
  161SOL     OW  296   2.237   1.471   0.649 -0.5229 -0.3777  0.1489
  161SOL    HW1  297   2.216   1.390   0.603 -1.1411  0.2596 -0.7192
  161SOL    HW2  298   2.197   1.461   0.735 -1.1135 -0.7576 -0.1648
  162SOL     OW  299   3.067   0.284   0.876 -0.2690  0.3458  0.3065
  162SOL    HW1  300   3.152   0.272   0.918  0.4495  0.6705 -0.9773
  162SOL    HW2  301   3.073   0.230   0.797 -0.2356  2.3644 -1.1551
  163SOL     OW  302   1.411   0.448   2.918 -0.0202  0.2038 -0.8132
  163SOL    HW1  303   1.362   0.390   2.977  0.0262  2.1931  1.3236
  163SOL    HW2  304   1.502   0.422   2.930 -0.0588  0.2522 -0.3964
  164SOL     OW  305   2.711   0.303   0.583 -0.3478 -0.3580 -0.3141
  164SOL    HW1  306   2.778   0.343   0.639 -0.5138  0.3233 -0.5968
  164SOL    HW2  307   2.680   0.227   0.633  1.5909 -1.4987 -0.7510
  165SOL     OW  308   1.136   0.173   0.150 -0.7862  0.2277  0.2921
  165SOL    HW1  309   1.103   0.102   0.205 -1.2353  1.5943  1.8730
  165SOL    HW2  310   1.220   0.196   0.188  0.3768 -0.7955 -1.4981
  166SOL     OW  311   2.739   0.870   1.346 -0.1873 -0.0780  0.0435
  166SOL    HW1  312   2.785   0.824   1.275 -0.4483  0.1867 -0.3009
  166SOL    HW2  313   2.779   0.957   1.347 -0.1124 -0.1160  0.2915
  167SOL     OW  314   0.680   1.174   1.781 -0.2157 -0.1362  0.3981
  167SOL    HW1  315   0.621   1.162   1.707  1.0231  1.5045 -0.9254
  167SOL    HW2  316   0.622   1.194   1.855 -1.3837 -0.2963 -0.4556
  168SOL     OW  317   2.061   0.340   3.003  0.1124  0.1959 -0.5675
  168SOL    HW1  318   2.006   0.268   2.972 -0.2236  1.0451 -2.0474
  168SOL    HW2  319   2.133   0.343   2.940  0.0635  1.2094 -0.5935
  169SOL     OW  320   1.773   2.044   1.111  0.3460  0.5612 -0.3361
  169SOL    HW1  321   1.787   1.983   1.183  0.4060  1.1511  0.1595
  169SOL    HW2  322   1.796   1.994   1.032 -0.1693 -0.2367  0.0087
  170SOL     OW  323   0.935   1.240   0.495  0.0414  0.3473  0.1607
  170SOL    HW1  324   0.921   1.325   0.535  0.1915  0.5252 -0.1606
  170SOL    HW2  325   0.868   1.183   0.534  0.3158  0.4652  0.8044
  171SOL     OW  326   1.262   2.413   2.373  0.5055 -0.0513 -0.1655
  171SOL    HW1  327   1.225   2.447   2.455 -0.4050  0.8579 -0.9265
  171SOL    HW2  328   1.344   2.371   2.399  0.0697 -0.0703  1.2540
  172SOL     OW  329   1.406   0.928   0.918 -0.1297 -0.5992  0.2145
  172SOL    HW1  330   1.397   0.858   0.982 -0.1430  0.7982  1.8332
  172SOL    HW2  331   1.490   0.911   0.875 -0.0349 -1.4858  0.7369
  173SOL     OW  332   1.343   2.808   1.636 -0.0246  0.3473  0.4783
  173SOL    HW1  333   1.360   2.838   1.725 -0.1349  0.0726  0.5953
  173SOL    HW2  334   1.361   2.884   1.580 -0.2199  0.6020  0.7601
  174SOL     OW  335   2.308   0.766   0.224  0.3017  0.1682 -0.1402
  174SOL    HW1  336   2.259   0.741   0.146  0.0722  3.3095 -1.1489
  174SOL    HW2  337   2.384   0.709   0.224 -0.6342 -1.1741 -1.5663
  175SOL     OW  338   0.913   0.147   2.292 -0.1294 -0.0988  0.3191
  175SOL    HW1  339   0.983   0.148   2.358  0.4543 -0.5679 -0.2733
  175SOL    HW2  340   0.868   0.230   2.303  0.6376  0.2865  0.6008
  176SOL     OW  341   0.506   0.513   2.651  0.1747 -0.6331  0.7104
  176SOL    HW1  342   0.574   0.516   2.718 -0.1996 -0.7748  1.1031
  176SOL    HW2  343   0.429   0.552   2.693 -0.6478 -2.4804  1.0724
  177SOL     OW  344   2.998   2.636   0.479 -0.2515  0.1122 -0.1489
  177SOL    HW1  345   3.027   2.578   0.409 -0.3300 -0.3871  0.2320
  177SOL    HW2  346   3.024   2.723   0.450 -0.0608 -0.1198 -0.6834
  178SOL     OW  347   0.878   2.013   0.985  0.0810  0.5562  0.1701
  178SOL    HW1  348   0.935   2.003   1.062  0.5962 -2.6206 -0.4918
  178SOL    HW2  349   0.902   2.098   0.949  2.2543  0.6458  1.6257
  179SOL     OW  350   2.397   1.103   1.566  0.3220  0.2965  0.2852
  179SOL    HW1  351   2.333   1.034   1.580  0.7568  0.2734  2.6744
  179SOL    HW2  352   2.359   1.180   1.609  1.1054  0.7615  0.1665
  180SOL     OW  353   0.472   2.799   0.746 -0.1037 -0.2960 -0.3999
  180SOL    HW1  354   0.458   2.731   0.811 -2.1494 -0.5706 -1.0606
  180SOL    HW2  355   0.509   2.873   0.795  1.4978 -1.5807  0.4438
  181SOL     OW  356   2.482   0.147   0.830  0.2821 -0.5460  0.1627
  181SOL    HW1  357   2.519   0.084   0.769 -1.5897 -0.8528 -0.7554
  181SOL    HW2  358   2.403   0.104   0.863 -1.1121  1.3088 -0.5852
  182SOL     OW  359   2.965   1.369   0.801 -0.0106  0.4756  0.4706
  182SOL    HW1  360   2.952   1.305   0.730  2.5304 -0.5629  0.8115
  182SOL    HW2  361   2.951   1.319   0.881  0.8364  0.6210  0.7237
  183SOL     OW  362   1.123   1.286   1.168  0.1937 -0.0188 -0.0002
  183SOL    HW1  363   1.160   1.374   1.182 -0.4506  0.3774 -0.6881
  183SOL    HW2  364   1.179   1.247   1.102 -0.8346  0.7572 -1.3870
  184SOL     OW  365   1.627   1.073   2.460 -0.3437  0.0584  0.4589
  184SOL    HW1  366   1.581   1.144   2.415 -0.2677  0.0935  0.4354
  184SOL    HW2  367   1.714   1.108   2.477 -0.9084  0.7317  2.2795
  185SOL     OW  368   0.071   2.245   0.488  0.6118 -0.0795 -0.3234
  185SOL    HW1  369   0.124   2.165   0.478 -0.1948 -0.7945  0.8568
  185SOL    HW2  370  -0.013   2.214   0.520 -0.1651  1.1548 -1.0913
  186SOL     OW  371   2.428   1.083   0.614  0.0865  0.3963  0.1236
  186SOL    HW1  372   2.395   1.013   0.559  0.8006  0.3814 -0.2949
  186SOL    HW2  373   2.498   1.123   0.563  1.2870 -0.1119  1.3038
  187SOL     OW  374   0.314   0.425   1.551 -0.7703 -0.1043  0.4903
  187SOL    HW1  375   0.298   0.486   1.623  0.3902  3.0767 -1.7125
  187SOL    HW2  376   0.357   0.350   1.593 -0.1180  1.5771  3.0983
  188SOL     OW  377   2.045   1.806   2.264 -0.5357  0.3539  0.0948
  188SOL    HW1  378   2.042   1.850   2.349 -0.9495  0.8837 -0.1904
  188SOL    HW2  379   1.962   1.829   2.223 -0.5059 -0.2293 -0.2917
  189SOL     OW  380   0.028   0.261   2.281  0.3137  0.0810 -0.5231
  189SOL    HW1  381   0.122   0.246   2.266  0.0149 -1.9220 -0.6136
  189SOL    HW2  382   0.024   0.349   2.319  1.9910  1.2661 -2.8016
  190SOL     OW  383   3.009   1.483   1.785  0.7999 -0.1602  0.3700
  190SOL    HW1  384   2.940   1.461   1.723  1.5755 -0.2771 -0.4734
  190SOL    HW2  385   3.073   1.413   1.777  0.9886 -0.1065  1.2070
  191SOL     OW  386   2.989   1.227   2.225 -0.5530 -0.3400  0.1446
  191SOL    HW1  387   3.070   1.276   2.216 -1.0804  0.6273  0.5259
  191SOL    HW2  388   2.962   1.207   2.135  0.4543 -1.2987  0.0282
  192SOL     OW  389   1.859   1.532   0.044  0.5658 -0.1429  0.1168
  192SOL    HW1  390   1.799   1.501   0.112  0.2228  0.1286 -0.0579
  192SOL    HW2  391   1.827   1.619   0.022  0.7337 -0.1912 -0.3245
  193SOL     OW  392   0.557   1.135   0.869 -0.7265  0.1644 -0.0038
  193SOL    HW1  393   0.611   1.172   0.940 -1.7601 -0.3253  1.0699
  193SOL    HW2  394   0.488   1.200   0.856 -0.5356  0.2558 -0.5926
  194SOL     OW  395   1.743   1.594   0.570  0.4338  0.0211 -0.6545
  194SOL    HW1  396   1.748   1.501   0.592 -1.9324 -0.2501 -0.9700
  194SOL    HW2  397   1.759   1.598   0.476  2.3733  0.2095 -0.3635
  195SOL     OW  398   1.036   1.252   2.483  0.1234 -0.0312 -0.8395
  195SOL    HW1  399   1.072   1.166   2.504 -0.7354 -0.7599 -2.2051
  195SOL    HW2  400   1.029   1.297   2.567 -0.2207 -1.6074 -0.0001
  196SOL     OW  401   2.432   0.781   1.895 -0.2245 -0.2515 -0.1493
  196SOL    HW1  402   2.394   0.868   1.907  3.0478  1.2087  0.5660
  196SOL    HW2  403   2.430   0.767   1.800 -2.5260 -0.3421 -0.1554
  197SOL     OW  404   2.759   0.686   2.960  0.4869  0.1007 -0.9168
  197SOL    HW1  405   2.789   0.606   2.916  0.2079 -1.4800  1.5343
  197SOL    HW2  406   2.839   0.738   2.970  1.6369 -1.8670  1.1970
  198SOL     OW  407   0.635   2.559   2.092  0.0362 -0.0591 -0.3170
  198SOL    HW1  408   0.638   2.469   2.125  2.7047 -0.1496 -0.5703
  198SOL    HW2  409   0.575   2.604   2.151  0.2848 -1.5246  1.1334
  199SOL     OW  410   0.748   0.776   1.516 -0.0497 -0.5215 -0.0061
  199SOL    HW1  411   0.777   0.855   1.561 -1.6478 -0.9538  1.9147
  199SOL    HW2  412   0.661   0.799   1.481 -0.7738 -1.5533  1.0444
  200SOL     OW  413   1.450   0.401   1.916  0.3353  0.2817  0.0352
  200SOL    HW1  414   1.436   0.452   1.996 -0.0823  0.5028 -0.1761
  200SOL    HW2  415   1.419   0.313   1.938  0.0234  0.3951  0.0494
  201SOL     OW  416   0.742   1.651   2.890 -0.0019  0.2473 -0.2522
  201SOL    HW1  417   0.824   1.685   2.854  0.1394 -0.4203 -0.5799
  201SOL    HW2  418   0.675   1.686   2.832 -0.0653  1.6379  0.6092
  202SOL     OW  419   0.866   1.984   2.551 -0.2067 -0.0353 -0.4561
  202SOL    HW1  420   0.900   1.925   2.618  0.5061 -0.7895 -1.4484
  202SOL    HW2  421   0.943   2.009   2.500 -0.3279  2.4612  0.4252
  203SOL     OW  422   0.091   1.359   1.404 -0.6072  0.7658 -0.5104
  203SOL    HW1  423   0.120   1.443   1.370 -0.9710  0.9485 -0.3773
  203SOL    HW2  424   0.157   1.336   1.469 -0.1463  0.6238 -1.0196
  204SOL     OW  425   0.336   0.256   0.637 -0.3774  0.5009 -0.2201
  204SOL    HW1  426   0.412   0.307   0.608  2.4596 -2.1943  1.8952
  204SOL    HW2  427   0.286   0.241   0.557  2.4607  0.6057 -2.1483
  205SOL     OW  428   0.903   1.927   2.962 -0.0139 -0.2111 -0.0189
  205SOL    HW1  429   0.933   2.015   2.940  0.3669 -0.0396  1.1234
  205SOL    HW2  430   0.903   1.880   2.878  1.8485  0.2689 -0.3305
  206SOL     OW  431   2.343   2.277   2.652  0.0659 -0.2582 -0.1184
  206SOL    HW1  432   2.254   2.268   2.616  0.3546  2.2186 -1.6808
  206SOL    HW2  433   2.335   2.346   2.717  0.6470 -0.9449  0.7082
  207SOL     OW  434   2.173   1.227   0.494  0.0428 -0.6727  0.2857
  207SOL    HW1  435   2.228   1.149   0.488 -1.2126 -1.5342 -0.3987
  207SOL    HW2  436   2.127   1.230   0.410 -1.2155 -0.1886  0.9722
  208SOL     OW  437   2.001   0.558   2.123 -0.1541 -0.7139  0.0925
  208SOL    HW1  438   2.016   0.622   2.054  0.1798  0.1525  0.9419
  208SOL    HW2  439   2.026   0.603   2.203 -1.7984 -1.2122  0.9400
  209SOL     OW  440   1.895   2.984   0.869  0.5718  0.1995 -0.1691
  209SOL    HW1  441   1.813   2.935   0.857  0.4895  0.5018 -0.8623
  209SOL    HW2  442   1.939   2.978   0.785  2.4166 -1.9960  0.8289
  210SOL     OW  443   0.964   1.074   1.428 -0.1760 -0.0281 -0.2739
  210SOL    HW1  444   0.942   1.055   1.519 -2.4740 -0.2705 -0.8204
  210SOL    HW2  445   1.024   1.148   1.433 -0.9008  0.4967  1.4188
  211SOL     OW  446   1.835   1.864   1.292 -0.1340  0.7636  0.2486
  211SOL    HW1  447   1.864   1.807   1.221 -3.0779  0.9740 -1.2695
  211SOL    HW2  448   1.779   1.808   1.347 -0.3925  1.3633  0.6123
  212SOL     OW  449   2.888   2.324   0.475  0.1075  0.3986  0.3147
  212SOL    HW1  450   2.931   2.380   0.410 -0.3384  2.1958  1.4696
  212SOL    HW2  451   2.887   2.378   0.554 -0.7130 -1.1454  1.3904
  213SOL     OW  452   1.752   0.809   1.707 -0.0171 -0.5342 -0.1509
  213SOL    HW1  453   1.671   0.797   1.657 -0.8390  0.4863  0.8579
  213SOL    HW2  454   1.764   0.726   1.753 -1.5966 -0.1081  1.1588
  214SOL     OW  455   1.099   1.623   0.776  0.1250 -0.3422 -0.0692
  214SOL    HW1  456   1.025   1.571   0.742  1.3852 -1.8356 -0.6239
  214SOL    HW2  457   1.062   1.711   0.787 -1.6059 -0.9186 -0.8047
  215SOL     OW  458   0.995   0.283   1.961 -0.4890 -0.1180 -0.0690
  215SOL    HW1  459   1.040   0.205   1.993  0.6524  1.1398  1.6091
  215SOL    HW2  460   0.904   0.270   1.987 -0.5589 -1.3644 -0.8326
  216SOL     OW  461   2.121   1.223   0.227 -0.2414  0.0300 -0.0704
  216SOL    HW1  462   2.031   1.255   0.232  0.0243  1.0774 -1.3623
  216SOL    HW2  463   2.136   1.210   0.133  0.3471 -1.9964  0.2614
  217SOL     OW  464   1.430   0.726   3.000 -0.1104 -0.4946 -0.2024
  217SOL    HW1  465   1.430   0.741   2.905 -1.2618 -0.5575 -0.2190
  217SOL    HW2  466   1.464   0.637   3.010  0.0407 -0.4780 -0.5520
  218SOL     OW  467   0.094   2.832   1.449 -0.4134 -0.1694  0.2150
  218SOL    HW1  468   0.045   2.904   1.488  0.2198 -0.3098  1.3291
  218SOL    HW2  469   0.085   2.760   1.512 -0.5242 -0.8726 -0.5806
  219SOL     OW  470   0.514   2.622   0.986  0.3956 -0.0315  0.5814
  219SOL    HW1  471   0.448   2.587   1.045 -0.1180  0.5843  0.3915
  219SOL    HW2  472   0.542   2.548   0.933  0.3435 -0.4354  1.1084
  220SOL     OW  473   1.706   3.058   2.443  0.3111  0.1195  0.1903
  220SOL    HW1  474   1.786   3.097   2.408  0.1647  0.5893  0.3762
  220SOL    HW2  475   1.670   3.007   2.370  0.6798  0.0545  0.0515
  221SOL     OW  476   2.088   1.770   1.925 -0.2057  0.1786 -0.7844
  221SOL    HW1  477   2.100   1.788   1.832  0.4774 -0.4155 -0.8180
  221SOL    HW2  478   2.011   1.823   1.950  0.5459  1.5681 -1.3109
  222SOL     OW  479   2.397   0.348   2.109 -0.5931  0.1531 -0.0542
  222SOL    HW1  480   2.360   0.283   2.050  0.1495  0.9682 -1.4625
  222SOL    HW2  481   2.382   0.432   2.066 -1.3155  0.9420  1.6096
  223SOL     OW  482   0.494   1.796   2.229 -0.5377  0.1200  0.2505
  223SOL    HW1  483   0.457   1.877   2.263 -1.8442 -0.5424  0.4836
  223SOL    HW2  484   0.552   1.823   2.158  0.1244  1.3377  1.2352
  224SOL     OW  485   1.577   2.281   1.753 -0.0440 -0.2110 -0.2608
  224SOL    HW1  486   1.489   2.247   1.769 -0.3923  0.5749 -0.4670
  224SOL    HW2  487   1.630   2.243   1.822 -0.9608  0.9210  1.1098
  225SOL     OW  488   1.443   1.675   1.497  0.2245 -0.3078  0.2101
  225SOL    HW1  489   1.395   1.719   1.567  2.1615  0.3955  1.1450
  225SOL    HW2  490   1.468   1.745   1.437 -0.8757 -0.8275 -0.8993
  226SOL     OW  491   0.913   0.002   1.056  0.5551  0.0409 -0.0551
  226SOL    HW1  492   0.819   0.011   1.069  0.5433 -1.0255  0.6678
  226SOL    HW2  493   0.921  -0.053   0.978  0.6148  2.2684 -1.6970
  227SOL     OW  494   1.421   1.050   0.648  0.3531  0.4222 -0.0940
  227SOL    HW1  495   1.327   1.058   0.659  0.4486  0.4092  0.8861
  227SOL    HW2  496   1.457   1.128   0.691  0.8596 -0.5995  1.4415
  228SOL     OW  497   2.494   0.698   0.825 -0.4396 -0.5637  0.4003
  228SOL    HW1  498   2.421   0.739   0.779  1.0904  1.5435 -0.3185
  228SOL    HW2  499   2.527   0.631   0.765  1.0098  1.5876 -1.3697
  229SOL     OW  500   1.587   1.717   1.784  0.5222 -0.7966 -0.0865
  229SOL    HW1  501   1.548   1.805   1.790  1.1917 -0.5535  0.9099
  229SOL    HW2  502   1.520   1.660   1.822  0.5134 -0.5784  0.2344
  230SOL     OW  503   2.048   2.927   2.530 -0.3085  0.0818  0.3163
  230SOL    HW1  504   2.115   2.975   2.578 -0.6244 -0.0219  0.8797
  230SOL    HW2  505   2.095   2.881   2.461 -0.0956  1.8450 -0.7806
  231SOL     OW  506   1.156   2.507   1.823  0.6085 -0.1310 -0.7986
  231SOL    HW1  507   1.154   2.573   1.892  1.2541 -1.7708  0.8772
  231SOL    HW2  508   1.063   2.489   1.804  0.4141 -0.1953  0.1926
  232SOL     OW  509   0.002   2.474   2.390 -0.1422 -0.2882 -0.2578
  232SOL    HW1  510   0.081   2.442   2.434  0.4031  2.4611  1.0297
  232SOL    HW2  511   0.036   2.525   2.316 -0.7358  0.2974 -0.1323
  233SOL     OW  512   2.832   1.725   2.131  0.2317  0.0584 -0.2387
  233SOL    HW1  513   2.887   1.737   2.208 -1.1490  1.9767  0.5363
  233SOL    HW2  514   2.757   1.674   2.162  0.6932 -1.0335 -0.8644
  234SOL     OW  515   2.235   0.486   1.898 -0.0015 -0.1248 -0.4592
  234SOL    HW1  516   2.178   0.563   1.909  0.8976  0.9605 -2.7065
  234SOL    HW2  517   2.179   0.421   1.856  0.0051  0.4593 -1.4215
  235SOL     OW  518   2.117   0.629   2.782 -0.7742  0.1513  0.0362
  235SOL    HW1  519   2.059   0.634   2.858 -0.5934 -0.3829  0.2178
  235SOL    HW2  520   2.090   0.549   2.737  0.1488 -0.3782  0.4009
  236SOL     OW  521   2.739   2.220   1.778 -0.2258 -0.2840  0.1673
  236SOL    HW1  522   2.786   2.304   1.779 -0.0927 -0.3599  0.2442
  236SOL    HW2  523   2.689   2.222   1.696 -0.8628  0.2257  0.5528
  237SOL     OW  524   3.066   3.098   1.001  0.3539  0.4060 -0.1085
  237SOL    HW1  525   3.108   3.019   0.968  0.3245  0.5284 -0.4385
  237SOL    HW2  526   3.064   3.157   0.926 -0.8953  0.2053 -0.2608
  238SOL     OW  527   2.126   1.412   2.667  0.6545 -0.6556 -0.1090
  238SOL    HW1  528   2.167   1.413   2.581  1.5062  2.1419  0.2164
  238SOL    HW2  529   2.178   1.475   2.719 -2.5465  1.3016  1.0452
  239SOL     OW  530   0.780   0.210   0.491  0.3024  0.3263  0.5205
  239SOL    HW1  531   0.753   0.230   0.402 -1.3468 -0.0565  0.9116
  239SOL    HW2  532   0.812   0.120   0.487  3.2054  1.2644 -0.2593
  240SOL     OW  533   2.587   3.113   0.618 -0.3230 -0.3382 -0.4659
  240SOL    HW1  534   2.579   3.092   0.525  0.9226  0.1360 -0.6853
  240SOL    HW2  535   2.638   3.041   0.655  1.0616  0.5437 -0.5846
  241SOL     OW  536   0.159   0.435   0.273  0.7382 -0.1684  0.2570
  241SOL    HW1  537   0.078   0.387   0.287  0.4138  0.1188 -0.5919
  241SOL    HW2  538   0.227   0.368   0.274  0.1857 -0.8493 -2.0466
  242SOL     OW  539   1.294   0.499   0.068 -0.4801  0.0931  0.7159
  242SOL    HW1  540   1.229   0.477   0.001 -0.8598  1.0774  0.7380
  242SOL    HW2  541   1.275   0.590   0.090  0.7305  0.3123  0.9321
  243SOL     OW  542   0.895   1.260   1.989 -0.1408 -0.6601  0.3746
  243SOL    HW1  543   0.840   1.215   1.926 -0.3934 -0.4483  0.4439
  243SOL    HW2  544   0.854   1.244   2.074  0.3172 -1.1275  0.5195
  244SOL     OW  545   3.099   0.740   0.892  0.5116  0.1198  0.0917
  244SOL    HW1  546   3.011   0.708   0.908  0.3357  0.0511 -0.9501
  244SOL    HW2  547   3.140   0.743   0.979 -0.0542 -1.1754  0.4183
  245SOL     OW  548   0.786   1.226   2.270 -0.3238 -0.6669 -0.0768
  245SOL    HW1  549   0.793   1.149   2.325  2.5265 -0.0932  0.5139
  245SOL    HW2  550   0.787   1.300   2.331 -1.1509 -0.0944 -0.7264
  246SOL     OW  551   0.014   0.585   2.915 -0.4265 -0.0186 -0.1456
  246SOL    HW1  552  -0.065   0.531   2.910  0.2127 -1.0399  0.4061
  246SOL    HW2  553  -0.017   0.669   2.948 -1.0988 -0.8829  1.6011
  247SOL     OW  554   0.454   2.046   0.708 -0.1502 -0.2471  0.1519
  247SOL    HW1  555   0.531   1.995   0.736 -0.1403 -0.1023  0.3808
  247SOL    HW2  556   0.430   2.007   0.623  0.3666 -0.0910 -0.0708
  248SOL     OW  557   2.445   2.789   1.726 -1.3742 -0.6734 -0.2683
  248SOL    HW1  558   2.510   2.820   1.790 -2.0333 -0.8314  0.5041
  248SOL    HW2  559   2.390   2.865   1.709 -0.4941 -0.3051 -1.5766
  249SOL     OW  560   0.494   0.872   0.928  0.4227  0.2624  0.6006
  249SOL    HW1  561   0.523   0.963   0.916  0.9443  0.0377  0.1471
  249SOL    HW2  562   0.567   0.819   0.899 -0.6375 -0.3264 -1.1850
  250SOL     OW  563   3.106   1.704   1.974 -0.3608  0.2375 -0.0185
  250SOL    HW1  564   3.019   1.695   1.934 -0.0261  0.4013 -0.8117
  250SOL    HW2  565   3.152   1.624   1.950 -0.4174 -0.0335  0.7452
  251SOL     OW  566   0.720   0.648   0.307 -0.3380  0.1943  0.2483
  251SOL    HW1  567   0.788   0.612   0.250 -1.0797 -0.9498  0.0525
  251SOL    HW2  568   0.661   0.695   0.248  0.0294  0.8258  0.3663
  252SOL     OW  569   1.788   2.002   2.729 -0.2737 -0.1077 -1.0556
  252SOL    HW1  570   1.797   1.907   2.742  0.3990 -0.0692 -1.1903
  252SOL    HW2  571   1.846   2.022   2.655 -1.5507  0.1871 -2.0096
  253SOL     OW  572   1.077   0.208   1.128 -0.0997 -0.2613 -0.0443
  253SOL    HW1  573   1.020   0.149   1.081 -1.5975  0.8095  0.3584
  253SOL    HW2  574   1.166   0.181   1.103 -0.7220 -2.5571  0.0470
  254SOL     OW  575   2.597   3.008   1.801 -0.4993 -0.2696  0.2034
  254SOL    HW1  576   2.567   3.098   1.792  2.1250  0.8851  1.7859
  254SOL    HW2  577   2.671   3.001   1.740 -0.4642 -1.2820  0.3322
  255SOL     OW  578   2.968   1.321   1.508  0.2431  0.2180  0.2024
  255SOL    HW1  579   3.032   1.359   1.448 -1.2513 -1.6251 -2.8383
  255SOL    HW2  580   2.892   1.379   1.500 -0.2020 -0.4219 -0.2637
  256SOL     OW  581   0.153   1.910   2.456 -0.4228 -0.6833  0.2363
  256SOL    HW1  582   0.198   1.876   2.533  0.3997 -0.8808 -0.3174
  256SOL    HW2  583   0.204   1.878   2.382 -0.3180  0.7560 -0.3462
  257SOL     OW  584   0.402   1.172   1.192  0.0498  0.2574 -0.8167
  257SOL    HW1  585   0.407   1.206   1.281  1.9615 -0.0298 -0.7717
  257SOL    HW2  586   0.493   1.155   1.168 -0.5226 -0.7571 -2.4120
  258SOL     OW  587   0.550   1.518   3.016  0.6092 -0.2056  0.0299
  258SOL    HW1  588   0.519   1.583   3.079  0.7107  0.1505 -0.2825
  258SOL    HW2  589   0.615   1.565   2.963  0.6046 -0.5324 -0.2711
  259SOL     OW  590   2.971   2.315   1.012 -0.3493 -0.2744  0.4733
  259SOL    HW1  591   3.019   2.311   1.095  0.4423  0.8968  0.0876
  259SOL    HW2  592   2.971   2.224   0.981  0.3516 -0.5359  1.1926
  260SOL     OW  593   2.404   0.641   2.143  0.3455 -0.4699 -0.4630
  260SOL    HW1  594   2.347   0.697   2.196  0.1914 -0.1134 -1.0019
  260SOL    HW2  595   2.395   0.675   2.054  3.4307  1.2885 -0.2205
  261SOL     OW  596   2.509   0.164   1.745 -0.2791 -0.6365 -0.1473
  261SOL    HW1  597   2.509   0.257   1.767 -0.5243 -0.8385  0.7188
  261SOL    HW2  598   2.422   0.148   1.708 -0.2153 -0.5107 -0.3523
  262SOL     OW  599   2.330   0.224   1.357  0.2471 -0.3209 -0.0129
  262SOL    HW1  600   2.305   0.172   1.433 -2.7222 -0.5679 -1.0327
  262SOL    HW2  601   2.366   0.160   1.295 -0.9053 -0.7654 -0.2449
  263SOL     OW  602   2.766   2.502   1.118  0.1283 -1.0892 -0.7006
  263SOL    HW1  603   2.834   2.466   1.060  0.8759 -1.8261  0.5759
  263SOL    HW2  604   2.762   2.439   1.190 -1.1292 -0.4482 -0.1979
  264SOL     OW  605   0.558   2.283   2.397  0.3686 -0.4400  0.1500
  264SOL    HW1  606   0.586   2.250   2.482  2.0966  1.1533  0.2705
  264SOL    HW2  607   0.573   2.378   2.403 -3.8673  0.4573 -0.3017
  265SOL     OW  608   0.722   2.707   1.313  0.2696  0.4903  0.7162
  265SOL    HW1  609   0.730   2.617   1.345 -1.2784 -0.0813 -0.3536
  265SOL    HW2  610   0.652   2.703   1.248  1.3961  2.1202 -0.7055
  266SOL     OW  611   0.501   1.818   1.085  0.5643  0.1826  0.0319
  266SOL    HW1  612   0.505   1.732   1.126 -0.3694  0.3830  0.5579
  266SOL    HW2  613   0.429   1.811   1.022  1.7737 -0.0252 -1.3699
  267SOL     OW  614   2.238   1.211   1.777  0.0911  0.0727  0.1472
  267SOL    HW1  615   2.309   1.269   1.804 -0.0255  0.9034 -1.2433
  267SOL    HW2  616   2.163   1.269   1.764 -0.6350 -0.6869  0.7850
  268SOL     OW  617   1.422   2.143   1.115  0.2059 -0.2013 -0.3277
  268SOL    HW1  618   1.483   2.153   1.042  0.4534  0.4049 -0.0433
  268SOL    HW2  619   1.344   2.192   1.088  0.5523  0.5956  0.0943
  269SOL     OW  620   1.152   2.543   2.604 -0.4529  0.0718 -0.0068
  269SOL    HW1  621   1.200   2.626   2.607  0.2943 -0.2959 -1.1347
  269SOL    HW2  622   1.199   2.487   2.666 -0.3233  0.1577 -0.0267
  270SOL     OW  623   0.354   3.065   2.801  0.1892 -0.6460 -0.6457
  270SOL    HW1  624   0.331   2.995   2.739 -2.0579 -1.1106  0.6292
  270SOL    HW2  625   0.325   3.145   2.759 -2.0927 -1.0397  0.0794
  271SOL     OW  626   0.981   1.904   0.762  0.3402  0.4104 -0.1138
  271SOL    HW1  627   0.945   1.947   0.839  0.0168 -0.3352  0.1556
  271SOL    HW2  628   0.913   1.912   0.696  1.7930  3.9473 -1.4566
  272SOL     OW  629   1.133   0.168   2.706  0.2752 -0.2408  0.5540
  272SOL    HW1  630   1.046   0.153   2.742  0.3698 -1.1469  0.4246
  272SOL    HW2  631   1.181   0.087   2.724  0.5975 -0.3772 -0.8212
  273SOL     OW  632   1.125   1.687   3.072 -0.0963 -0.0774 -0.6495
  273SOL    HW1  633   1.214   1.682   3.107  0.7003 -0.8379 -2.5932
  273SOL    HW2  634   1.083   1.757   3.121  0.3197 -2.0615  2.8809
  274SOL     OW  635   0.884   1.369   2.704 -0.8372 -0.2551  0.3741
  274SOL    HW1  636   0.940   1.398   2.776 -0.7464 -0.2336  0.2948
  274SOL    HW2  637   0.892   1.438   2.638 -0.9009 -0.2864  0.3331
  275SOL     OW  638   1.805   1.575   1.762 -0.8959 -0.2263 -0.0317
  275SOL    HW1  639   1.722   1.622   1.750 -1.3169 -0.1848  2.4538
  275SOL    HW2  640   1.814   1.567   1.857  3.2291  2.1084  0.0289
  276SOL     OW  641   0.962   1.407   1.625  0.1302  0.2711  0.3031
  276SOL    HW1  642   1.022   1.336   1.601  1.4973  0.9715  1.5275
  276SOL    HW2  643   0.918   1.429   1.543  0.1325 -1.5499 -0.2326
  277SOL     OW  644   1.648   0.119   2.641 -0.0047 -0.7282 -0.2161
  277SOL    HW1  645   1.669   0.050   2.579 -0.7093 -1.6375  0.5363
  277SOL    HW2  646   1.553   0.115   2.652  0.1755 -1.1995  1.5812
  278SOL     OW  647   2.600   2.257   2.510  0.1561  0.8276 -0.3005
  278SOL    HW1  648   2.568   2.253   2.420 -0.3185 -0.0342 -0.1026
  278SOL    HW2  649   2.522   2.267   2.564  0.0519 -2.0641  0.2478
  279SOL     OW  650   2.221   2.352   1.429 -0.2700 -0.0217 -0.0605
  279SOL    HW1  651   2.175   2.322   1.352  0.6687 -1.6194 -0.0345
  279SOL    HW2  652   2.306   2.382   1.397  0.1726 -0.8076  0.3521
  280SOL     OW  653   0.366   0.405   1.928 -0.3572  0.0204 -0.3768
  280SOL    HW1  654   0.381   0.328   1.983 -1.0621 -0.7755 -1.2622
  280SOL    HW2  655   0.278   0.393   1.893 -0.4166  1.1615 -0.6694
  281SOL     OW  656   2.623   1.509   2.238  0.0097 -0.3399 -0.2179
  281SOL    HW1  657   2.532   1.536   2.245  0.5730  1.2206  2.4887
  281SOL    HW2  658   2.622   1.416   2.262 -0.7140  0.0952  1.6155
  282SOL     OW  659   2.239   0.369   1.000 -0.1651  0.1642 -0.1495
  282SOL    HW1  660   2.200   0.387   1.086 -1.1019  3.0251 -1.0481
  282SOL    HW2  661   2.266   0.278   1.005 -0.0127  0.2531  3.2277
  283SOL     OW  662   1.761   1.367   0.942 -0.1798 -0.2741  0.0133
  283SOL    HW1  663   1.741   1.274   0.932  0.4622 -0.5485  1.1334
  283SOL    HW2  664   1.774   1.379   1.036 -0.8168  1.0775 -0.0557
  284SOL     OW  665   0.367   2.649   1.840  0.4438  0.1964  0.0048
  284SOL    HW1  666   0.445   2.593   1.844  1.0257  1.0350  0.7992
  284SOL    HW2  667   0.321   2.634   1.922 -0.6627 -0.8549 -0.7729
  285SOL     OW  668   2.916   2.505   3.097  0.4014 -0.5961  0.1812
  285SOL    HW1  669   2.857   2.580   3.093 -0.6095 -1.2151  2.0832
  285SOL    HW2  670   2.896   2.454   3.019 -1.4810 -0.6646  0.6547
  286SOL     OW  671   0.275   2.977   0.073  0.1732  0.6940  0.6264
  286SOL    HW1  672   0.235   3.039   0.011 -1.7675  0.8768  1.9674
  286SOL    HW2  673   0.355   2.947   0.029 -0.4068  1.8616 -1.3479
  287SOL     OW  674   1.251   0.012   2.935 -0.3928 -0.1210 -0.8086
  287SOL    HW1  675   1.255  -0.049   3.009  0.7439  2.9610  1.9488
  287SOL    HW2  676   1.330  -0.007   2.885 -0.0652 -0.9340 -0.0202
  288SOL     OW  677   0.262   2.446   0.843  0.1660 -0.2623 -0.0612
  288SOL    HW1  678   0.217   2.363   0.825 -2.3271  0.8218  0.7083
  288SOL    HW2  679   0.313   2.464   0.764 -1.0116 -1.4435 -1.1371
  289SOL     OW  680   0.579   1.706   2.669 -0.6386  0.6358 -0.0490
  289SOL    HW1  681   0.567   1.649   2.593 -1.2685  0.0054  0.5169
  289SOL    HW2  682   0.589   1.794   2.631  0.6729  0.1326 -0.9427
  290SOL     OW  683   2.100   2.109   1.667 -0.2607  0.2821  0.1492
  290SOL    HW1  684   2.024   2.083   1.719 -0.4361  0.9504  0.2300
  290SOL    HW2  685   2.117   2.199   1.692 -0.0375  0.4549 -0.5934
  291SOL     OW  686   2.587   1.070   1.778  0.2929  0.0286 -0.0368
  291SOL    HW1  687   2.526   1.047   1.708  1.7634  0.7610 -1.6392
  291SOL    HW2  688   2.644   0.993   1.786  0.7033  0.2999 -0.3096
  292SOL     OW  689   0.742   2.805   0.873 -0.0025  0.3437  0.2167
  292SOL    HW1  690   0.701   2.730   0.916  0.2654  0.1092  0.0651
  292SOL    HW2  691   0.836   2.793   0.887  0.0068  0.9669  0.7059
  293SOL     OW  692   2.616   2.059   0.303  0.6632  0.2096  0.0357
  293SOL    HW1  693   2.609   2.152   0.324 -0.2545  0.0316  0.6058
  293SOL    HW2  694   2.559   2.016   0.367  1.8403 -0.8402  0.4104
  294SOL     OW  695   0.461   1.747   1.864 -0.4480 -0.0267 -0.2857
  294SOL    HW1  696   0.389   1.803   1.836 -0.1268  0.6477  0.1930
  294SOL    HW2  697   0.438   1.722   1.954 -0.3384 -0.2257 -0.3130
  295SOL     OW  698   2.600   2.103   0.886  0.0757  0.0065  0.7755
  295SOL    HW1  699   2.588   2.109   0.791  0.5187  2.1326  0.8126
  295SOL    HW2  700   2.694   2.089   0.897 -0.0890 -1.0588  0.8957
  296SOL     OW  701   0.433   2.093   0.135  0.6391  0.1385  0.6804
  296SOL    HW1  702   0.343   2.080   0.106  1.4239 -1.2161 -1.3223
  296SOL    HW2  703   0.425   2.148   0.213 -1.7948  1.3536 -0.3312
  297SOL     OW  704   1.511   2.654   2.053  0.3131  0.3762 -0.0711
  297SOL    HW1  705   1.495   2.633   2.145 -0.2638 -1.1062 -0.4934
  297SOL    HW2  706   1.596   2.614   2.033 -0.7273 -1.5632 -0.8393
  298SOL     OW  707   2.790   2.732   0.220 -0.0441  0.8584  0.5567
  298SOL    HW1  708   2.868   2.767   0.262  0.3394  0.0746  0.5128
  298SOL    HW2  709   2.764   2.658   0.274 -0.6264  0.9705  0.4407
  299SOL     OW  710   2.025   2.067   0.769  0.4055  0.0739 -0.2868
  299SOL    HW1  711   2.075   2.034   0.694 -0.7332 -2.3135 -0.0988
  299SOL    HW2  712   2.091   2.082   0.837  1.1891 -0.0669 -1.0015
  300SOL     OW  713   0.285   2.539   1.310  0.3811  0.2854 -0.0584
  300SOL    HW1  714   0.310   2.477   1.242  0.5441 -1.1850  1.2807
  300SOL    HW2  715   0.289   2.488   1.391  0.9112  2.1639  1.1516
  301SOL     OW  716   2.611   0.447   2.299 -0.6916 -0.0361  0.1781
  301SOL    HW1  717   2.676   0.452   2.228 -0.6591 -0.6867  0.1609
  301SOL    HW2  718   2.534   0.493   2.263 -0.4112  0.3201  0.0202
  302SOL     OW  719   2.956   2.771   1.084  0.0295 -0.4058  0.1354
  302SOL    HW1  720   2.989   2.689   1.120 -1.3640 -0.6995  0.8384
  302SOL    HW2  721   2.964   2.834   1.156  2.4138  0.5183 -0.8178
  303SOL     OW  722   1.382   0.900   2.761  0.1974 -0.2936 -0.0782
  303SOL    HW1  723   1.349   0.837   2.697 -2.9766 -0.3689  1.4137
  303SOL    HW2  724   1.408   0.975   2.709 -0.9452 -0.8801 -1.5934
  304SOL     OW  725   0.183   2.478   0.429 -0.1633 -0.3901  0.1934
  304SOL    HW1  726   0.125   2.406   0.401 -0.7090  0.6214 -1.4364
  304SOL    HW2  727   0.163   2.490   0.522 -2.0090 -0.6048 -0.1307
  305SOL     OW  728   1.236   0.781   0.166  0.6574 -0.2233 -0.8202
  305SOL    HW1  729   1.296   0.750   0.234  0.9244 -1.0261 -1.4163
  305SOL    HW2  730   1.235   0.876   0.177 -1.1854 -0.4165  1.9091
  306SOL     OW  731   2.487   0.445   1.815 -0.4067 -0.0072  0.3472
  306SOL    HW1  732   2.550   0.477   1.879 -0.2856  1.4917 -0.4779
  306SOL    HW2  733   2.402   0.478   1.846 -0.8113 -1.8489  1.3461
  307SOL     OW  734   1.687   2.130   1.989  0.2855 -0.0356 -0.1990
  307SOL    HW1  735   1.731   2.186   2.054  0.5770 -0.0281 -0.3989
  307SOL    HW2  736   1.599   2.118   2.024  0.1784  0.6478 -0.2074
  308SOL     OW  737   2.627   0.977   0.753 -0.4960  0.2003  0.3915
  308SOL    HW1  738   2.540   1.001   0.721 -0.5048  2.6468  2.0426
  308SOL    HW2  739   2.636   0.884   0.729 -1.3412  1.1152 -4.6068
  309SOL     OW  740   1.922   0.059   0.488  0.2266 -0.6823 -0.2503
  309SOL    HW1  741   1.906  -0.018   0.434  0.2889 -0.6732 -0.2826
  309SOL    HW2  742   1.991   0.107   0.440  0.3063 -0.6914 -0.1452
  310SOL     OW  743   2.675   2.597   2.037 -0.1853  0.2034  0.3083
  310SOL    HW1  744   2.666   2.689   2.063  0.8666 -0.0585  1.7028
  310SOL    HW2  745   2.728   2.599   1.957 -1.5095  0.8729 -0.6042
  311SOL     OW  746   2.187   1.719   1.210 -0.5239  0.3653 -0.4560
  311SOL    HW1  747   2.120   1.670   1.258 -0.3873  0.0021 -0.6376
  311SOL    HW2  748   2.199   1.671   1.128  1.4714 -0.7786  0.4483
  312SOL     OW  749   1.948   0.546   0.887 -0.3408  0.0645 -0.2165
  312SOL    HW1  750   2.015   0.558   0.820 -0.7470 -0.4190 -0.7151
  312SOL    HW2  751   1.995   0.505   0.960 -0.1714 -0.6737 -0.7235
  313SOL     OW  752   2.966   1.308   0.004  0.0389 -0.5503  0.1892
  313SOL    HW1  753   3.044   1.362   0.019  0.6567 -1.1575 -0.6957
  313SOL    HW2  754   2.907   1.331   0.075  0.2165  1.3903 -0.2291
  314SOL     OW  755   0.856   0.815   0.965 -0.0837  0.0748  0.1651
  314SOL    HW1  756   0.904   0.898   0.960 -0.7381  0.4428 -0.1296
  314SOL    HW2  757   0.869   0.785   1.055 -1.0235  1.2322  0.7179
  315SOL     OW  758   3.111   1.449   2.416  0.5086 -0.0014  0.4983
  315SOL    HW1  759   3.148   1.536   2.431 -0.4013  0.4760  0.1095
  315SOL    HW2  760   3.017   1.465   2.403  0.0490 -1.2254  2.0506
  316SOL     OW  761   1.197   1.678   1.032 -0.3039  0.5165 -0.5567
  316SOL    HW1  762   1.191   1.617   0.959 -3.7973 -0.0074 -0.0036
  316SOL    HW2  763   1.243   1.754   0.997  1.6233 -1.2474 -2.0669
  317SOL     OW  764   0.398   2.302   1.403  0.1936  0.5216 -0.8922
  317SOL    HW1  765   0.459   2.230   1.385  0.3017  0.7801 -1.6125
  317SOL    HW2  766   0.315   2.273   1.366  0.1373  0.6017 -0.8303
  318SOL     OW  767   0.138   1.347   0.731 -0.4832  0.1425 -0.5664
  318SOL    HW1  768   0.044   1.347   0.752 -0.4266 -0.8512 -0.2298
  318SOL    HW2  769   0.141   1.342   0.636 -0.8047 -1.5538 -0.5198
  319SOL     OW  770   2.685   2.260   1.324  0.5686 -0.0773  0.0864
  319SOL    HW1  771   2.653   2.184   1.275 -0.8600  0.8921 -0.5664
  319SOL    HW2  772   2.780   2.256   1.314  0.4546 -1.1687 -0.8648
  320SOL     OW  773   2.228   1.570   0.986 -0.2495 -0.0500 -0.8159
  320SOL    HW1  774   2.148   1.548   0.938 -0.2715 -0.6599 -0.5025
  320SOL    HW2  775   2.252   1.490   1.032  0.8275 -0.0420 -1.3063
  321SOL     OW  776   1.869   1.266   0.335  0.0241  0.1509  0.6206
  321SOL    HW1  777   1.823   1.184   0.353  2.4651 -1.9065 -1.8035
  321SOL    HW2  778   1.824   1.302   0.258  1.7777 -1.4844 -1.2890
  322SOL     OW  779   2.480   0.149   0.018 -0.4956  0.1140 -0.0461
  322SOL    HW1  780   2.560   0.189   0.051 -0.7447  1.0280 -0.5045
  322SOL    HW2  781   2.451   0.090   0.089  0.7067 -0.4270  0.0088
  323SOL     OW  782   0.690   1.651   2.391  0.4997  0.6893  0.0221
  323SOL    HW1  783   0.637   1.584   2.433  0.7694 -1.2123 -2.4481
  323SOL    HW2  784   0.635   1.686   2.322  1.8102 -0.1761 -1.5389
  324SOL     OW  785   0.395   1.781   0.574 -0.1625 -0.2810  0.7850
  324SOL    HW1  786   0.476   1.763   0.526 -1.1764 -3.2607 -0.0547
  324SOL    HW2  787   0.396   1.717   0.646 -2.4894 -1.5881 -0.2514
  325SOL     OW  788   0.303   2.556   2.101  0.1004  0.1041 -0.2768
  325SOL    HW1  789   0.210   2.554   2.124  0.1098 -0.2458 -0.2630
  325SOL    HW2  790   0.324   2.465   2.080  0.5394  0.1161  0.1168
  326SOL     OW  791   2.544   1.250   2.412 -0.4833  0.0649  0.5290
  326SOL    HW1  792   2.631   1.212   2.428  0.4166  2.0623  0.6769
  326SOL    HW2  793   2.483   1.181   2.436  1.0616 -1.3368  0.5987
  327SOL     OW  794   1.791   0.670   2.328  0.1601 -0.0943  0.1350
  327SOL    HW1  795   1.727   0.722   2.377 -0.5175  0.4794 -1.2767
  327SOL    HW2  796   1.815   0.727   2.254  2.0028 -0.4723  0.4079
  328SOL     OW  797   2.757   1.791   2.942  0.4309 -0.4298 -0.2007
  328SOL    HW1  798   2.849   1.806   2.922  0.1665 -2.4797 -3.7422
  328SOL    HW2  799   2.751   1.697   2.961 -0.7826 -0.1216  1.0745
  329SOL     OW  800   2.861   1.980   0.873 -0.3890 -0.4673  0.3853
  329SOL    HW1  801   2.874   1.958   0.965  0.2656 -0.8551  0.1984
  329SOL    HW2  802   2.827   1.900   0.834 -0.1176 -0.4727  0.1646
  330SOL     OW  803   1.822   1.803   1.980 -0.1648 -0.1439  0.4109
  330SOL    HW1  804   1.761   1.845   1.919 -0.1816 -0.3495  0.2874
  330SOL    HW2  805   1.779   1.812   2.065 -0.2840 -0.1259  0.3501
  331SOL     OW  806   3.013   0.772   1.876 -0.8206 -0.1173  0.2124
  331SOL    HW1  807   3.000   0.819   1.958 -0.6840  0.0980  0.1118
  331SOL    HW2  808   3.097   0.804   1.843  0.4310 -2.1332  1.2947
  332SOL     OW  809   0.592   1.098   0.246  0.1628 -0.1623  0.0449
  332SOL    HW1  810   0.582   1.011   0.207 -0.0323 -0.1704  0.1099
  332SOL    HW2  811   0.553   1.090   0.333  1.1987 -0.3235  0.5000
  333SOL     OW  812   1.897   0.413   2.405  0.0525 -0.0570  0.0555
  333SOL    HW1  813   1.893   0.508   2.396  0.8189 -0.0360 -0.0652
  333SOL    HW2  814   1.974   0.387   2.354 -0.6853 -0.8404 -0.7053
  334SOL     OW  815   1.848   1.065   0.081 -0.7918  0.1424  0.3034
  334SOL    HW1  816   1.805   0.999   0.027  0.3924  0.6172 -1.2717
  334SOL    HW2  817   1.922   1.095   0.029  1.0763 -0.1375  2.6338
  335SOL     OW  818   1.036   1.387   2.238  0.3097  0.1820 -0.0404
  335SOL    HW1  819   1.026   1.343   2.322  1.5868 -1.0532 -0.4965
  335SOL    HW2  820   1.054   1.316   2.176  0.0291  1.1316 -1.2425
  336SOL     OW  821   0.913   0.980   1.177 -0.9276 -0.4919  0.2734
  336SOL    HW1  822   0.907   1.033   1.256 -0.8283 -1.0307  0.6450
  336SOL    HW2  823   0.920   0.890   1.208 -0.1109 -0.6507 -0.3346
  337SOL     OW  824   0.777   2.020   1.516  0.3559  0.0150 -0.0014
  337SOL    HW1  825   0.785   1.951   1.581 -0.3788  1.4615  1.7058
  337SOL    HW2  826   0.838   1.996   1.447  1.6364 -1.2651  1.5146
  338SOL     OW  827   2.863   0.170   2.713 -0.1833  0.0538  0.0735
  338SOL    HW1  828   2.819   0.115   2.777 -1.4145  0.0897 -0.7082
  338SOL    HW2  829   2.794   0.197   2.652  1.1545 -1.2406 -2.1820
  339SOL     OW  830   1.183   1.594   2.136 -0.6071 -0.1405  0.0255
  339SOL    HW1  831   1.276   1.577   2.152 -0.4150  0.9872  0.1955
  339SOL    HW2  832   1.139   1.515   2.167 -0.0718  0.8952  3.9749
  340SOL     OW  833   0.073   0.652   2.567  0.3575 -0.7430 -0.1732
  340SOL    HW1  834   0.029   0.726   2.609  1.2106 -0.8096  0.8612
  340SOL    HW2  835   0.121   0.692   2.494 -1.2222 -0.6475 -1.2063
  341SOL     OW  836   1.225   1.800   2.682  0.0154 -0.2437  0.4621
  341SOL    HW1  837   1.271   1.802   2.598  0.3309 -2.0770  0.5607
  341SOL    HW2  838   1.276   1.859   2.738  0.6226 -0.1019 -0.2271
  342SOL     OW  839   2.171   0.606   1.170 -0.4374 -0.1977 -0.3602
  342SOL    HW1  840   2.256   0.615   1.126  0.7000  0.5480  1.8082
  342SOL    HW2  841   2.114   0.669   1.127  0.7489  0.8187 -0.5048
  343SOL     OW  842   2.151   0.358   2.275 -0.3708 -0.2224 -0.1037
  343SOL    HW1  843   2.124   0.425   2.212  0.4227  0.2594  0.0586
  343SOL    HW2  844   2.216   0.401   2.331 -0.3929 -0.9084  0.4769
  344SOL     OW  845   0.006   0.082   0.049  0.0510  0.0625 -0.2936
  344SOL    HW1  846   0.087   0.123   0.021  0.2105  0.2753  0.4441
  344SOL    HW2  847   0.004   0.096   0.144  0.1996 -1.7822  0.0233
  345SOL     OW  848   2.022   0.180   0.724  0.0077  0.0575 -0.4591
  345SOL    HW1  849   1.960   0.252   0.720  0.0113  0.1954  1.3192
  345SOL    HW2  850   2.012   0.135   0.640 -1.6333  0.7719 -0.6777
  346SOL     OW  851   2.506   0.516   0.613  0.2828 -0.2188  0.7050
  346SOL    HW1  852   2.553   0.439   0.644 -0.0842 -0.5058  0.5517
  346SOL    HW2  853   2.433   0.481   0.563  1.4218  0.2300 -1.3681
  347SOL     OW  854   0.963   2.244   0.599  0.3615 -0.0898 -0.2703
  347SOL    HW1  855   1.026   2.192   0.548 -1.4680 -0.8674 -1.8620
  347SOL    HW2  856   0.879   2.228   0.556 -0.7267  1.9761  0.9595
  348SOL     OW  857   0.026   0.936   0.687  0.1276 -0.5031 -0.0829
  348SOL    HW1  858   0.095   0.994   0.717 -0.4886  0.2462 -0.0874
  348SOL    HW2  859   0.013   0.875   0.759 -2.0879  1.9327  1.7549
  349SOL     OW  860   2.067   0.792   1.962 -0.2834  0.9018  0.1276
  349SOL    HW1  861   2.065   0.812   1.869  0.3073  2.7896  0.4892
  349SOL    HW2  862   2.144   0.837   1.995 -0.3752  0.1040  1.5014
  350SOL     OW  863   0.474   3.036   1.324  0.2422 -0.1612 -0.2712
  350SOL    HW1  864   0.405   3.102   1.326  0.0889 -0.3355  0.1132
  350SOL    HW2  865   0.432   2.958   1.289  0.3929 -0.0955 -0.6033
  351SOL     OW  866   1.956   2.220   1.335  0.4671 -0.1671 -0.0679
  351SOL    HW1  867   1.888   2.288   1.332  1.9689  1.4991  1.2144
  351SOL    HW2  868   2.002   2.228   1.251  0.2134 -0.0725 -0.1999
  352SOL     OW  869   1.423   1.478   2.151  0.3638 -0.3842 -0.0219
  352SOL    HW1  870   1.448   1.508   2.063 -0.4091 -0.5164 -0.2945
  352SOL    HW2  871   1.392   1.389   2.137 -1.9481  0.3553 -0.0105
  353SOL     OW  872   2.701   0.880   0.033 -0.4166 -0.1554 -0.3969
  353SOL    HW1  873   2.674   0.961  -0.011 -2.4895 -0.9605 -0.7025
  353SOL    HW2  874   2.715   0.817  -0.038  2.1151  0.1129 -0.2293
  354SOL     OW  875   0.634   0.358   1.753  0.0405  0.4887  0.6922
  354SOL    HW1  876   0.665   0.316   1.833 -0.3767 -1.4757 -0.1114
  354SOL    HW2  877   0.539   0.345   1.754  0.1529 -0.6930 -0.6862
  355SOL     OW  878   0.894   0.793   2.760  0.7986 -0.3376 -0.1847
  355SOL    HW1  879   0.966   0.780   2.699  0.2507 -0.6808 -0.7785
  355SOL    HW2  880   0.916   0.874   2.806  2.2441 -1.1816  0.6530
  356SOL     OW  881   1.709   2.077   3.001 -0.3835 -0.2400  0.2996
  356SOL    HW1  882   1.628   2.126   2.988 -1.4732 -1.8574  0.6955
  356SOL    HW2  883   1.774   2.144   3.024 -1.5286  1.1216 -0.2622
  357SOL     OW  884   3.095   0.708   1.484 -0.0910  0.1735  0.8063
  357SOL    HW1  885   3.003   0.717   1.459  0.2046  3.0014  0.4558
  357SOL    HW2  886   3.134   0.659   1.413 -0.9326  0.7978 -0.1174
  358SOL     OW  887   0.805   2.687   0.394 -0.6991 -0.6232 -0.1008
  358SOL    HW1  888   0.896   2.672   0.421 -0.1185 -0.7573 -1.9949
  358SOL    HW2  889   0.769   2.744   0.462  1.1870  0.4468  0.0779
  359SOL     OW  890   1.739   1.799   2.238  0.0100  0.1590 -0.1925
  359SOL    HW1  891   1.746   1.878   2.292 -0.8774  0.1115  0.0079
  359SOL    HW2  892   1.705   1.732   2.297 -1.3576  0.2082 -0.8774
  360SOL     OW  893   1.508   2.085   0.865 -0.1847 -0.4481 -0.0151
  360SOL    HW1  894   1.447   2.052   0.799  0.6789  1.2023 -1.7455
  360SOL    HW2  895   1.592   2.047   0.841  0.3945  1.1938 -0.7348
  361SOL     OW  896   0.384   2.625   0.111 -0.5783  0.3383 -0.3996
  361SOL    HW1  897   0.444   2.609   0.185  0.4470  2.3298 -0.7433
  361SOL    HW2  898   0.314   2.678   0.148 -1.7972 -1.3556 -0.1754
  362SOL     OW  899   0.041   1.239   1.178 -0.3217 -0.4285  0.6053
  362SOL    HW1  900   0.031   1.149   1.209  0.7450 -0.1021  1.9685
  362SOL    HW2  901   0.050   1.292   1.257 -1.6029  0.9940 -0.1431
  363SOL     OW  902   0.309   0.610   0.701  0.5465  0.0675 -0.3818
  363SOL    HW1  903   0.214   0.617   0.699  0.6845  3.3063 -0.8331
  363SOL    HW2  904   0.331   0.618   0.794  0.3957  0.5240 -0.3800
  364SOL     OW  905   0.045   1.485   0.044  0.0126 -0.1429 -0.2024
  364SOL    HW1  906   0.066   1.578   0.037  4.1589 -0.7949  0.6062
  364SOL    HW2  907   0.033   1.470   0.138 -1.5191 -0.3152 -0.4093
  365SOL     OW  908   1.618   1.395   1.603 -0.5230  0.0895  0.0402
  365SOL    HW1  909   1.582   1.473   1.645  0.8360  1.5404 -1.3509
  365SOL    HW2  910   1.547   1.364   1.546 -0.8044  0.8086 -0.0104
  366SOL     OW  911   1.191   2.391   2.865  0.0216  0.4303  0.2814
  366SOL    HW1  912   1.096   2.396   2.863  0.0080  0.7116  1.4109
  366SOL    HW2  913   1.212   2.307   2.822 -0.7503  0.1030  0.5453
  367SOL     OW  914   1.141   2.709   2.036 -0.4882  0.4233  0.3459
  367SOL    HW1  915   1.221   2.761   2.039 -0.5847  0.6049 -0.1248
  367SOL    HW2  916   1.081   2.761   1.983 -0.4787 -0.3141 -0.4048
  368SOL     OW  917   0.477   3.091   0.648 -0.6619  0.0171 -0.0210
  368SOL    HW1  918   0.468   3.185   0.635  2.6464  0.7977  2.1278
  368SOL    HW2  919   0.516   3.082   0.735 -0.1248 -3.2941 -0.4682
  369SOL     OW  920   0.055   0.544   2.250  0.4929  0.3589 -0.5602
  369SOL    HW1  921   0.107   0.599   2.308  0.1897  0.2669 -0.1914
  369SOL    HW2  922   0.098   0.551   2.165  1.1730  0.1856 -0.2362
  370SOL     OW  923   1.378   1.187   3.032  0.3577  0.3288  0.0261
  370SOL    HW1  924   1.437   1.241   2.979  0.4966 -0.3002 -0.4742
  370SOL    HW2  925   1.431   1.155   3.104  0.2156  1.0383  0.4579
  371SOL     OW  926   1.992   0.351   1.929 -0.1259 -0.0082  0.5441
  371SOL    HW1  927   1.914   0.324   1.882 -0.0537 -0.4790  0.6939
  371SOL    HW2  928   1.960   0.398   2.006 -0.2476  0.4363  0.2283
  372SOL     OW  929   2.500   1.231   1.988  0.3427  0.0662 -0.1478
  372SOL    HW1  930   2.497   1.187   1.902  0.8262  1.9084 -1.1680
  372SOL    HW2  931   2.563   1.302   1.976  0.2100  0.5418  1.6734
  373SOL     OW  932   2.513   0.993   1.340 -0.0917  0.7580  0.3130
  373SOL    HW1  933   2.461   1.020   1.415  0.1342 -0.9374  1.1184
  373SOL    HW2  934   2.592   0.953   1.378  0.8498  1.4257 -0.8525
  374SOL     OW  935   1.193   1.336   2.768  0.1632 -0.5614 -0.1988
  374SOL    HW1  936   1.128   1.380   2.823  0.9483 -0.0875  0.3622
  374SOL    HW2  937   1.194   1.246   2.800  0.0434 -0.4798  0.0391
  375SOL     OW  938   1.902   2.521   1.683  0.1676 -0.4786 -0.2325
  375SOL    HW1  939   1.846   2.536   1.607  0.3754  0.0157 -0.2904
  375SOL    HW2  940   1.970   2.589   1.677  0.7999 -1.0915 -0.1913
  376SOL     OW  941   2.070   2.950   2.082  0.0409  0.0997  0.8831
  376SOL    HW1  942   2.134   2.889   2.046 -0.5468 -0.4540  0.7420
  376SOL    HW2  943   2.078   3.028   2.028  0.0607 -0.2578  0.3579
  377SOL     OW  944   1.452   1.893   1.276 -0.4768 -0.4838 -0.4872
  377SOL    HW1  945   1.433   1.972   1.226  0.5600  0.7084  0.9061
  377SOL    HW2  946   1.499   1.836   1.214 -2.0258 -0.4509 -1.7669
  378SOL     OW  947   2.189   0.081   0.918 -0.6332 -0.2729  0.1175
  378SOL    HW1  948   2.141   0.079   1.001 -2.5175 -1.9941 -0.9245
  378SOL    HW2  949   2.128   0.123   0.857 -0.6175 -1.9678 -1.1160
  379SOL     OW  950   0.946   1.774   2.730 -0.0670  0.4320 -0.0698
  379SOL    HW1  951   0.946   1.699   2.671  0.0927 -3.1080  3.9562
  379SOL    HW2  952   1.037   1.803   2.732  0.1592 -0.2055 -0.6172
  380SOL     OW  953   1.772   2.730   1.534 -0.5714  0.0636  0.1927
  380SOL    HW1  954   1.736   2.818   1.543 -0.7379  0.0385 -0.2228
  380SOL    HW2  955   1.843   2.739   1.471 -1.6047 -0.3755 -1.0831
  381SOL     OW  956   1.484   1.472   1.045 -0.3357 -0.0616  0.3577
  381SOL    HW1  957   1.559   1.530   1.058 -0.2527 -0.2779  0.8590
  381SOL    HW2  958   1.419   1.502   1.109 -0.6360  0.0499  0.0072
  382SOL     OW  959   0.088   0.398   1.871  0.3154 -0.4058  0.0539
  382SOL    HW1  960   0.009   0.369   1.916  0.6281 -3.3413 -1.0513
  382SOL    HW2  961   0.056   0.436   1.789  0.0073 -1.2001 -0.2030
  383SOL     OW  962   0.917   2.339   2.077 -0.2941 -0.6544 -0.1379
  383SOL    HW1  963   0.972   2.404   2.120 -1.6755 -0.3985  1.3563
  383SOL    HW2  964   0.912   2.368   1.986  0.4274  0.4194  0.1424
  384SOL     OW  965   1.572   1.239   1.167  0.5169  0.4436  0.1865
  384SOL    HW1  966   1.576   1.171   1.099  1.8242  1.8297 -1.2011
  384SOL    HW2  967   1.522   1.310   1.127  1.2293  1.2483  0.6888
  385SOL     OW  968   2.764   1.976   1.248 -0.8672 -0.0332  0.0813
  385SOL    HW1  969   2.702   1.912   1.211 -1.8865  0.1166  1.4486
  385SOL    HW2  970   2.846   1.928   1.255 -1.1334 -0.6220 -0.6126
  386SOL     OW  971   1.005   0.701   0.239  1.2903  0.1734 -0.4503
  386SOL    HW1  972   1.094   0.722   0.211  1.5696  0.7693  0.8070
  386SOL    HW2  973   0.951   0.712   0.161  2.3340 -0.3210 -1.2598
  387SOL     OW  974   3.011   2.423   0.239 -0.1709  0.8108  0.4479
  387SOL    HW1  975   3.098   2.396   0.209  0.1593  1.2256  1.0133
  387SOL    HW2  976   2.965   2.449   0.159  0.4473  1.1919  0.2096
  388SOL     OW  977   2.310   1.346   1.107 -0.1902  0.4602  0.2767
  388SOL    HW1  978   2.341   1.389   1.186 -0.2029 -0.6707  0.9125
  388SOL    HW2  979   2.254   1.276   1.138 -1.0252  0.6357 -0.7743
  389SOL     OW  980   2.295   0.414   2.523  0.2188  0.0277  0.0940
  389SOL    HW1  981   2.372   0.433   2.577 -0.2198  0.7168  0.4938
  389SOL    HW2  982   2.223   0.409   2.586 -0.1312 -0.1990 -0.3244
  390SOL     OW  983   1.117   0.120   1.623  0.3656 -0.6461 -0.1052
  390SOL    HW1  984   1.049   0.065   1.661  0.3567 -0.9147 -0.5032
  390SOL    HW2  985   1.107   0.205   1.667  0.0765 -0.8212  0.1681
  391SOL     OW  986   1.059   2.725   1.318 -0.1797 -0.0522 -0.3113
  391SOL    HW1  987   1.029   2.705   1.406 -0.9276 -0.1895 -0.5939
  391SOL    HW2  988   1.081   2.639   1.280  1.4391  0.1077  0.1856
  392SOL     OW  989   2.275   1.731   2.576  0.2324 -0.0222 -0.4284
  392SOL    HW1  990   2.311   1.690   2.655  0.0686  1.4688  0.4594
  392SOL    HW2  991   2.275   1.661   2.511 -0.0981 -1.4342  1.0243
  393SOL     OW  992   2.976   1.808   0.420 -0.5225  0.3840  0.5656
  393SOL    HW1  993   2.999   1.807   0.513  1.2444  0.6966  0.1576
  393SOL    HW2  994   2.950   1.899   0.403 -0.4488  0.4228  0.6609
  394SOL     OW  995   2.914   0.371   1.948  0.3590  0.3543 -0.3052
  394SOL    HW1  996   2.902   0.297   1.888  3.3381 -0.0889 -0.4936
  394SOL    HW2  997   2.860   0.441   1.910 -0.3796 -0.8855 -1.6496
  395SOL     OW  998   0.010   1.078   2.950 -0.5707 -0.1848 -0.3421
  395SOL    HW1  999  -0.042   1.062   3.028 -0.2675  0.2557 -0.0442
  395SOL    HW2 1000   0.097   1.043   2.971 -0.3812  0.2795 -0.3325
  396SOL     OW 1001   0.281   2.657   2.967  0.1692 -0.2440  0.5056
  396SOL    HW1 1002   0.315   2.656   3.057 -0.5598  1.1273  0.8340
  396SOL    HW2 1003   0.186   2.658   2.978  0.0767  0.9716 -0.2282
  397SOL     OW 1004   1.147   0.567   0.594 -0.4396  0.2163  0.9959
  397SOL    HW1 1005   1.138   0.522   0.677 -1.0204 -0.0248  0.8041
  397SOL    HW2 1006   1.160   0.497   0.530  0.4930  0.4253  0.9448
  398SOL     OW 1007   0.649   2.435   1.339  0.4568  0.0367  0.4817
  398SOL    HW1 1008   0.561   2.416   1.371 -0.1795  0.1202 -1.1359
  398SOL    HW2 1009   0.655   2.388   1.256  1.4072  1.1999 -0.1337
  399SOL     OW 1010   0.751   2.214   0.300  0.6960 -0.1563  0.1342
  399SOL    HW1 1011   0.753   2.119   0.299 -0.5497 -0.2382  1.3242
  399SOL    HW2 1012   0.732   2.237   0.391  0.8638  1.2273 -0.1483
  400SOL     OW 1013   2.540   1.727   0.031  0.5055  0.5077 -0.3311
  400SOL    HW1 1014   2.479   1.654   0.028  0.6343  0.3740  0.1950
  400SOL    HW2 1015   2.509   1.787  -0.037 -1.6419  1.5738  1.4987
  401SOL     OW 1016   1.866   2.119   1.761 -0.1723  0.4967  0.4891
  401SOL    HW1 1017   1.801   2.076   1.817  0.5550 -0.9201  0.2951
  401SOL    HW2 1018   1.818   2.142   1.682 -0.3033 -1.2209  0.0323
  402SOL     OW 1019   2.786   0.022   0.908  0.1828 -0.1364 -0.1277
  402SOL    HW1 1020   2.800   0.113   0.881 -1.3412  0.3365  0.5701
  402SOL    HW2 1021   2.856   0.004   0.971 -0.0470  0.8587  0.4220
  403SOL     OW 1022   1.012   2.730   0.953  0.2209  0.4514  0.2713
  403SOL    HW1 1023   1.100   2.709   0.922  0.6391  0.3114  1.5193
  403SOL    HW2 1024   1.010   2.698   1.043 -1.3885 -0.3206 -0.0069
  404SOL     OW 1025   2.697   1.400   1.540 -0.2347 -0.6279 -0.2236
  404SOL    HW1 1026   2.656   1.486   1.528 -0.9529 -0.8133  0.7998
  404SOL    HW2 1027   2.643   1.340   1.489 -1.5102 -0.9314  1.4097
  405SOL     OW 1028   0.034   1.780   0.043 -0.6598  0.5051 -0.1644
  405SOL    HW1 1029  -0.052   1.819   0.061 -1.1789 -0.7138  0.1257
  405SOL    HW2 1030   0.077   1.778   0.129 -1.4433 -1.3639  0.2436
  406SOL     OW 1031   0.873   1.604   2.148  0.0459 -0.1541 -0.1173
  406SOL    HW1 1032   0.918   1.681   2.182 -1.5118  0.7464 -0.0031
  406SOL    HW2 1033   0.923   1.530   2.183 -0.9495  0.6867  3.5318
  407SOL     OW 1034   1.451   0.126   0.433  0.5775 -0.6066 -0.2214
  407SOL    HW1 1035   1.503   0.159   0.507 -1.6746  0.1225  1.1397
  407SOL    HW2 1036   1.440   0.202   0.377 -1.2241  0.0181  0.8854
  408SOL     OW 1037   0.699   2.633   2.833  0.0223 -0.7800 -0.8319
  408SOL    HW1 1038   0.784   2.658   2.798  0.3903  1.0991  1.2107
  408SOL    HW2 1039   0.637   2.693   2.791  0.3345  0.7936  0.8356
  409SOL     OW 1040   2.707   0.565   1.993  0.0765  0.0697  0.4319
  409SOL    HW1 1041   2.778   0.548   2.056 -1.2377 -2.6095  1.3588
  409SOL    HW2 1042   2.655   0.634   2.034  0.6356  0.1146  1.0984
  410SOL     OW 1043   0.229   0.499   3.112 -0.5227  0.8515 -0.4729
  410SOL    HW1 1044   0.195   0.520   3.199 -1.2954 -0.5488 -0.4007
  410SOL    HW2 1045   0.181   0.556   3.052 -2.3791 -0.4017 -0.2701
  411SOL     OW 1046   0.645   0.583   0.856  0.0643 -0.0633 -0.6386
  411SOL    HW1 1047   0.637   0.510   0.795 -1.1612 -0.1798 -0.3558
  411SOL    HW2 1048   0.733   0.574   0.893  0.5137 -0.4692 -1.7584
  412SOL     OW 1049   2.755   1.582   0.098 -0.5191  0.2617 -0.4339
  412SOL    HW1 1050   2.789   1.515   0.038 -2.1637 -1.0026 -0.0236
  412SOL    HW2 1051   2.692   1.632   0.046 -1.0770 -0.0782 -0.0897
  413SOL     OW 1052   1.136   0.212   2.444  0.3972  0.3210  0.2105
  413SOL    HW1 1053   1.210   0.272   2.457  2.3664 -2.2029  1.5234
  413SOL    HW2 1054   1.115   0.180   2.531 -1.0969 -0.3995 -0.3707
  414SOL     OW 1055   0.940   2.251   1.230  0.3016 -0.3443  0.6347
  414SOL    HW1 1056   0.948   2.178   1.292  2.0397 -1.7757 -1.1499
  414SOL    HW2 1057   0.851   2.244   1.197  0.1921 -1.1748  1.0706
  415SOL     OW 1058   2.019   2.325   2.171 -0.4987 -0.1414  0.0920
  415SOL    HW1 1059   2.105   2.283   2.173 -0.0648  0.7273  0.1690
  415SOL    HW2 1060   2.007   2.350   2.080  0.1424  1.3408  0.3909
  416SOL     OW 1061   1.110   0.021   0.835  0.5587  0.1409 -0.4597
  416SOL    HW1 1062   1.179  -0.018   0.889  0.1906 -1.9894 -1.4364
  416SOL    HW2 1063   1.131  -0.007   0.746 -1.7730 -0.9703 -0.7259
  417SOL     OW 1064   1.169   0.792   2.964 -0.3443 -0.1786 -0.2936
  417SOL    HW1 1065   1.262   0.782   2.980 -0.2966  0.6727  0.0198
  417SOL    HW2 1066   1.164   0.858   2.895 -0.7153 -0.1647 -0.2559
  418SOL     OW 1067   1.775   2.002   2.438  0.3727 -0.1130 -0.0373
  418SOL    HW1 1068   1.680   2.018   2.442 -0.0768 -1.4358 -2.9750
  418SOL    HW2 1069   1.812   2.089   2.421 -0.3203  0.3345  0.6169
  419SOL     OW 1070   0.818   1.386   3.086 -0.7198 -0.1813  0.5696
  419SOL    HW1 1071   0.740   1.441   3.074 -1.7940 -1.3378  1.8796
  419SOL    HW2 1072   0.833   1.387   3.181  1.0632  0.2504  0.3163
  420SOL     OW 1073   0.593   0.199   2.225 -0.0124 -0.5709 -0.3103
  420SOL    HW1 1074   0.614   0.224   2.314  2.1186  2.6569 -1.5523
  420SOL    HW2 1075   0.511   0.245   2.206 -0.6420 -1.5196  0.0211
  421SOL     OW 1076   0.373   0.779   1.342 -0.1444  0.2639 -0.2444
  421SOL    HW1 1077   0.330   0.824   1.269 -0.8030 -0.3306 -0.2296
  421SOL    HW2 1078   0.354   0.686   1.328  0.1532  0.1010  0.4042
  422SOL     OW 1079   0.354   0.375   2.208 -0.0152 -0.7895 -0.3726
  422SOL    HW1 1080   0.343   0.430   2.285 -2.2177 -2.1687  0.3983
  422SOL    HW2 1081   0.368   0.437   2.136  0.9064  0.5776  0.9303
  423SOL     OW 1082   2.417   0.712   1.622  0.4430  0.3227  0.2661
  423SOL    HW1 1083   2.432   0.620   1.597  0.8813  0.3995  0.2459
  423SOL    HW2 1084   2.473   0.762   1.563  0.4088  0.5887  0.4596
  424SOL     OW 1085   0.648   2.207   1.688  0.9516 -0.3328  0.0940
  424SOL    HW1 1086   0.659   2.147   1.614  1.6383 -0.5822  0.3927
  424SOL    HW2 1087   0.665   2.294   1.651  0.3471 -0.3519 -0.2500
  425SOL     OW 1088   0.119   1.346   1.875 -0.0593  0.4000  0.0983
  425SOL    HW1 1089   0.116   1.254   1.900  1.1255  0.8916  2.2950
  425SOL    HW2 1090   0.100   1.394   1.956 -0.5957  2.1100 -0.9747
  426SOL     OW 1091   2.375   2.996   0.891  0.1819 -0.0531 -0.3537
  426SOL    HW1 1092   2.294   3.038   0.863  0.9649  1.1502 -0.8849
  426SOL    HW2 1093   2.353   2.957   0.976 -0.7919  0.7308 -0.2225
  427SOL     OW 1094   2.579   1.209   0.914  0.4043  0.3176 -0.2947
  427SOL    HW1 1095   2.486   1.193   0.901  0.5229  0.0471 -0.8343
  427SOL    HW2 1096   2.621   1.127   0.888  0.7416  0.1654  0.6821
  428SOL     OW 1097   0.179   1.808   2.193 -0.5219  0.1573 -0.0582
  428SOL    HW1 1098   0.118   1.786   2.122 -0.5166  0.9025 -0.3039
  428SOL    HW2 1099   0.242   1.868   2.152 -0.5056  0.5788  0.5733
  429SOL     OW 1100   2.998   2.915   0.638  0.2773  0.4542  0.1035
  429SOL    HW1 1101   2.904   2.910   0.624  0.4454  0.2600 -1.0907
  429SOL    HW2 1102   3.015   2.860   0.714 -0.5960  0.6338  0.4266
  430SOL     OW 1103   0.336   2.893   2.510 -0.4538  0.1635 -0.6546
  430SOL    HW1 1104   0.423   2.865   2.481  0.2471  1.1160  0.4013
  430SOL    HW2 1105   0.337   2.988   2.499 -1.7881  0.0940 -1.6571
  431SOL     OW 1106   0.759   2.042   2.274 -0.1459  0.2202 -0.0396
  431SOL    HW1 1107   0.784   2.003   2.357 -1.4112  0.2328  0.3731
  431SOL    HW2 1108   0.712   1.972   2.227  2.2009 -0.4243 -1.6128
  432SOL     OW 1109   1.167   1.223   1.534 -0.1369  0.1639 -0.2431
  432SOL    HW1 1110   1.215   1.179   1.604 -1.1990  0.5709  0.7745
  432SOL    HW2 1111   1.235   1.255   1.475  0.9327  1.4682  1.5924
  433SOL     OW 1112   0.985   2.736   3.024  0.1259  1.0476  0.9795
  433SOL    HW1 1113   0.956   2.796   2.954  1.5379 -3.8947 -4.6781
  433SOL    HW2 1114   0.905   2.696   3.056 -0.4942  0.2266 -1.3697
  434SOL     OW 1115   2.910   1.891   1.689 -0.2031 -0.4417  0.2435
  434SOL    HW1 1116   2.978   1.843   1.642  0.2149  2.2162 -2.1028
  434SOL    HW2 1117   2.847   1.916   1.622 -1.2915  0.8183  1.6505
  435SOL     OW 1118   1.765   2.768   2.450  0.4284 -0.0193 -0.3927
  435SOL    HW1 1119   1.766   2.860   2.477 -0.5835  0.6232 -2.3953
  435SOL    HW2 1120   1.852   2.735   2.476  0.0448  0.8356  2.3174
  436SOL     OW 1121   0.631   2.181   3.051 -0.0491  0.5131 -0.0737
  436SOL    HW1 1122   0.575   2.163   3.126 -1.9390 -2.7209 -1.9871
  436SOL    HW2 1123   0.572   2.217   2.985  0.9066  0.5246 -0.9572
  437SOL     OW 1124   0.464   2.943   0.392  0.4313  0.6780  0.0858
  437SOL    HW1 1125   0.421   2.858   0.393  0.8668  0.4543 -0.0341
  437SOL    HW2 1126   0.463   2.972   0.483  0.9300  0.2142  0.2406
  438SOL     OW 1127   0.957   1.703   1.146 -0.3458 -0.1662  0.4604
  438SOL    HW1 1128   0.921   1.630   1.095 -1.5937 -0.5189  1.7680
  438SOL    HW2 1129   1.041   1.722   1.105  0.6615 -3.2084  0.8263
  439SOL     OW 1130   1.603   0.703   0.744  0.2258 -0.1233  0.3178
  439SOL    HW1 1131   1.576   0.670   0.830  0.4857  0.4619  0.6306
  439SOL    HW2 1132   1.522   0.713   0.695  0.0933 -0.6583  0.4231
  440SOL     OW 1133   1.069   0.548   2.991 -0.7472  0.2702 -0.8541
  440SOL    HW1 1134   1.090   0.637   2.963 -1.6463  0.9738  0.5691
  440SOL    HW2 1135   1.121   0.492   2.934  1.0113  1.7444 -0.7947
  441SOL     OW 1136   1.995   2.702   1.364 -0.6382  0.5475 -0.0602
  441SOL    HW1 1137   2.074   2.652   1.381 -0.1772  2.0284  2.6562
  441SOL    HW2 1138   2.001   2.726   1.271  0.1792 -2.4580 -0.8812
  442SOL     OW 1139   0.553   1.206   2.029  0.4836 -0.2584 -0.1576
  442SOL    HW1 1140   0.571   1.299   2.042  2.4328 -0.5555 -0.5420
  442SOL    HW2 1141   0.495   1.182   2.102 -1.0839  1.5013 -0.7458
  443SOL     OW 1142   2.771   2.342   2.067  0.0354  0.0794  0.5654
  443SOL    HW1 1143   2.733   2.428   2.048  0.8728  0.3033 -0.2064
  443SOL    HW2 1144   2.792   2.306   1.980  0.0862 -0.7225  0.9021
  444SOL     OW 1145   2.634   0.378   0.926 -0.7504  0.2462  0.1117
  444SOL    HW1 1146   2.591   0.388   1.011 -1.6076  0.4102 -0.3334
  444SOL    HW2 1147   2.595   0.300   0.888 -0.4483  0.2362 -0.1830
  445SOL     OW 1148   2.292   2.670   1.459  0.6208  0.7379 -0.2436
  445SOL    HW1 1149   2.319   2.749   1.411 -0.3265  1.1042 -0.1938
  445SOL    HW2 1150   2.360   2.606   1.440  1.5138  1.6307 -0.1271
  446SOL     OW 1151   1.963   0.551   1.632  0.0335 -0.0747 -0.4574
  446SOL    HW1 1152   1.891   0.568   1.692  1.2492  0.2021  0.9652
  446SOL    HW2 1153   2.020   0.628   1.639 -0.6089  0.7964 -3.2730
  447SOL     OW 1154   1.025   0.687   1.544  0.0104  0.7377  0.2481
  447SOL    HW1 1155   0.935   0.720   1.534 -0.5374 -0.7338  0.0608
  447SOL    HW2 1156   1.017   0.615   1.608  0.7393 -0.5392 -1.0356
  448SOL     OW 1157   3.031   2.919   0.050 -0.7574 -0.4229  0.1836
  448SOL    HW1 1158   3.116   2.941   0.012 -0.2863 -1.6294  0.4929
  448SOL    HW2 1159   2.977   2.996   0.033 -0.2221 -0.4270 -1.8404
  449SOL     OW 1160   1.732   2.337   0.126  0.1358  0.3160 -0.2201
  449SOL    HW1 1161   1.763   2.333   0.216  0.3715 -0.5057 -0.3301
  449SOL    HW2 1162   1.804   2.299   0.074  0.3140  1.4534 -0.8347
  450SOL     OW 1163   1.197   0.873   1.692  0.1501  0.4101  0.2428
  450SOL    HW1 1164   1.137   0.916   1.753  0.4606  0.4274  0.5413
  450SOL    HW2 1165   1.141   0.821   1.635 -0.3195  1.9511 -0.7360
  451SOL     OW 1166   1.509   2.795   3.044  0.1299 -0.1151 -0.0378
  451SOL    HW1 1167   1.471   2.708   3.037 -0.4054  0.0051  1.0619
  451SOL    HW2 1168   1.581   2.796   2.982 -1.0251 -0.7026 -1.4240
  452SOL     OW 1169   2.512   0.620   0.335 -0.5696 -0.0620  0.5030
  452SOL    HW1 1170   2.452   0.546   0.345 -0.1133 -0.5308 -0.1428
  452SOL    HW2 1171   2.551   0.632   0.422 -0.6836 -0.5544  0.6229
  453SOL     OW 1172   2.305   0.683   3.064 -0.4556 -0.1837 -0.2605
  453SOL    HW1 1173   2.321   0.733   2.984 -0.6602  0.8650  0.3360
  453SOL    HW2 1174   2.390   0.647   3.087 -0.1203  0.5920 -0.2471
  454SOL     OW 1175   2.851   2.060   0.427  0.0263  0.0502  0.7728
  454SOL    HW1 1176   2.766   2.041   0.388 -0.3703  2.3322  0.3489
  454SOL    HW2 1177   2.858   2.156   0.423  2.9089 -0.0866  0.1997
  455SOL     OW 1178   2.993   1.206   2.676 -0.3123  0.0236 -0.3309
  455SOL    HW1 1179   2.975   1.148   2.750 -1.1299 -0.8612 -1.1975
  455SOL    HW2 1180   3.064   1.263   2.707  0.3104 -1.2335  0.6565
  456SOL     OW 1181   0.261   0.146   0.885  0.0104 -0.6283 -0.2330
  456SOL    HW1 1182   0.270   0.208   0.957  0.7424 -0.5873 -0.3502
  456SOL    HW2 1183   0.284   0.196   0.807 -3.7699  0.2517 -0.9936
  457SOL     OW 1184   0.629   0.311   2.476 -0.8858  0.0313 -0.2141
  457SOL    HW1 1185   0.717   0.340   2.502 -1.4956  0.1212  2.0093
  457SOL    HW2 1186   0.570   0.370   2.523 -2.1442 -0.3934 -1.2208
  458SOL     OW 1187   2.330   2.799   2.578 -0.0094  0.4467 -0.5001
  458SOL    HW1 1188   2.279   2.763   2.651 -0.5962 -1.1568 -1.6268
  458SOL    HW2 1189   2.277   2.779   2.500  1.9062 -0.4975 -1.6319
  459SOL     OW 1190   0.309   0.925   1.113  0.0344 -0.0650 -0.6181
  459SOL    HW1 1191   0.374   0.899   1.047 -0.2210  0.1252 -0.9469
  459SOL    HW2 1192   0.313   1.021   1.113 -1.3292  0.0272 -1.7475
  460SOL     OW 1193   2.512   0.467   2.722 -0.0924  0.2422  0.1566
  460SOL    HW1 1194   2.549   0.383   2.750 -0.7448 -0.2996 -0.5718
  460SOL    HW2 1195   2.577   0.502   2.661  1.1300  1.2294  1.9319
  461SOL     OW 1196   1.974   1.696   0.700  0.2056 -0.5135 -0.3772
  461SOL    HW1 1197   1.898   1.686   0.642 -0.2901 -1.2974  0.3764
  461SOL    HW2 1198   1.974   1.616   0.753  0.1627  0.5423  1.2687
  462SOL     OW 1199   0.793   0.280   1.304 -0.0941  0.1437  0.0243
  462SOL    HW1 1200   0.827   0.356   1.257 -0.7740 -0.0327 -0.7731
  462SOL    HW2 1201   0.708   0.262   1.264 -0.1413 -0.7716  0.4959
  463SOL     OW 1202   2.237   0.544   0.799  0.3015 -0.6505 -0.2241
  463SOL    HW1 1203   2.255   0.493   0.878 -0.1567 -0.4289  0.0227
  463SOL    HW2 1204   2.295   0.506   0.733  0.7025 -0.8235  0.2199
  464SOL     OW 1205   2.168   2.768   2.345 -0.8742  0.1117  0.0687
  464SOL    HW1 1206   2.199   2.817   2.269  0.0114 -0.2216  0.2143
  464SOL    HW2 1207   2.103   2.707   2.309 -0.7797  0.2564 -0.3508
  465SOL     OW 1208   2.133   2.700   2.761 -0.6882  0.4563 -0.4404
  465SOL    HW1 1209   2.090   2.739   2.838 -0.4650  3.4089 -1.7056
  465SOL    HW2 1210   2.066   2.702   2.693 -0.0425  0.5139 -1.0860
  466SOL     OW 1211   2.115   1.996   1.023  0.1780  0.0951 -0.4177
  466SOL    HW1 1212   2.207   1.976   1.006  0.0854 -0.3796 -0.3806
  466SOL    HW2 1213   2.117   2.060   1.095  0.4529 -0.5819  0.1870
  467SOL     OW 1214   1.180   0.482   2.284  0.6146 -0.6724  0.1067
  467SOL    HW1 1215   1.247   0.525   2.231 -0.0474  0.0576 -0.1735
  467SOL    HW2 1216   1.228   0.426   2.344  1.3472 -2.4959 -2.0512
  468SOL     OW 1217   2.573   2.204   3.012  0.4988  0.1542 -0.1949
  468SOL    HW1 1218   2.625   2.144   2.958  1.5486 -0.4488  1.4301
  468SOL    HW2 1219   2.598   2.291   2.982  0.4254 -0.1581 -1.2345
  469SOL     OW 1220   0.312   1.074   2.950 -0.3519  0.1862  0.5583
  469SOL    HW1 1221   0.325   1.116   2.864 -0.2237  0.4344  0.6965
  469SOL    HW2 1222   0.368   1.124   3.009 -0.7362  0.2664  0.8616
  470SOL     OW 1223   1.549   1.077   0.091 -0.1048  0.1432 -0.3652
  470SOL    HW1 1224   1.640   1.106   0.104 -0.0987 -0.4760  1.1728
  470SOL    HW2 1225   1.556   0.989   0.054 -0.0548 -0.1304  0.2780
  471SOL     OW 1226   2.723   2.030   1.513  1.1231  0.2317  0.4914
  471SOL    HW1 1227   2.721   2.011   1.419  0.9253 -3.0114  1.0180
  471SOL    HW2 1228   2.647   2.086   1.528 -0.0987 -0.9234 -1.0063
  472SOL     OW 1229   0.754   1.139   3.000 -0.0061  0.2809 -0.3660
  472SOL    HW1 1230   0.814   1.097   2.938  2.3208  0.5344  1.5365
  472SOL    HW2 1231   0.800   1.219   3.026 -2.6182  2.1275 -1.0597
  473SOL     OW 1232   2.434   0.401   1.536 -0.0823 -0.9009 -0.6457
  473SOL    HW1 1233   2.383   0.323   1.512 -1.7416  0.1302 -0.5995
  473SOL    HW2 1234   2.447   0.393   1.630 -0.3876 -1.0437 -0.6140
  474SOL     OW 1235   2.838   1.510   2.414  0.3508 -0.3340  0.3174
  474SOL    HW1 1236   2.822   1.529   2.507 -2.4693  1.9068 -0.4741
  474SOL    HW2 1237   2.753   1.525   2.372  1.8979  0.3225 -2.8581
  475SOL     OW 1238   2.271   0.993   1.949 -0.0304 -0.0206  0.0171
  475SOL    HW1 1239   2.285   1.054   2.021  0.5964 -1.6654  1.3709
  475SOL    HW2 1240   2.256   1.048   1.873 -1.0150  1.7888  1.4510
  476SOL     OW 1241   1.787   0.204   2.185 -1.0241 -0.3339  0.3227
  476SOL    HW1 1242   1.740   0.124   2.158  0.6117 -1.4244  0.5905
  476SOL    HW2 1243   1.871   0.172   2.219  0.2412  1.5919 -0.8383
  477SOL     OW 1244   0.903   0.917   0.373 -0.2155  0.0348  0.2920
  477SOL    HW1 1245   0.818   0.960   0.386  0.5377  1.8583 -0.4494
  477SOL    HW2 1246   0.905   0.897   0.279  0.5628  0.9944  0.0768
  478SOL     OW 1247   2.801   2.486   0.691  0.1467  0.3050  0.6087
  478SOL    HW1 1248   2.744   2.440   0.753  1.2709 -0.7428  0.9289
  478SOL    HW2 1249   2.825   2.567   0.736 -0.6908  0.5290  0.6649
  479SOL     OW 1250   0.421   2.527   2.734 -0.0360  0.1939 -0.5017
  479SOL    HW1 1251   0.486   2.592   2.706  0.1892  0.5093  0.6765
  479SOL    HW2 1252   0.383   2.565   2.813  0.2340 -1.1857  0.3182
  480SOL     OW 1253   2.247   2.551   0.957 -0.2157  0.0371  0.0968
  480SOL    HW1 1254   2.219   2.486   1.022  1.6290 -0.2358  0.6782
  480SOL    HW2 1255   2.335   2.524   0.933  0.3596  1.9774 -0.1191
  481SOL     OW 1256   2.587   1.267   1.326 -0.3693 -0.4258 -0.5259
  481SOL    HW1 1257   2.522   1.332   1.301 -0.9117 -0.8698 -0.2988
  481SOL    HW2 1258   2.544   1.183   1.310  0.1767 -0.7234 -0.4464
  482SOL     OW 1259   0.722   1.863   2.085  0.2587 -0.1594 -0.3127
  482SOL    HW1 1260   0.724   1.784   2.032 -1.8833 -0.2820 -0.2715
  482SOL    HW2 1261   0.780   1.924   2.039  2.1060 -1.7630 -0.2396
  483SOL     OW 1262   1.755   2.297   2.773  0.4660 -0.0042 -0.0268
  483SOL    HW1 1263   1.779   2.209   2.800  1.7626  0.7680  1.5331
  483SOL    HW2 1264   1.696   2.285   2.698  0.3773 -2.1659  0.3450
  484SOL     OW 1265   3.084   0.981   0.101 -0.2977  0.3520 -0.1856
  484SOL    HW1 1266   3.042   1.051   0.151  0.7400  1.1450 -0.3845
  484SOL    HW2 1267   3.175   0.981   0.132  0.0556  0.0190 -1.1733
  485SOL     OW 1268   2.569   1.650   1.475  0.4255  0.1680 -0.5366
  485SOL    HW1 1269   2.565   1.711   1.549  1.3404  0.4531 -0.7050
  485SOL    HW2 1270   2.528   1.696   1.402 -0.8329 -0.2623 -0.1257
  486SOL     OW 1271   2.958   3.009   1.234  0.1313 -0.6802 -0.0349
  486SOL    HW1 1272   2.996   3.037   1.151 -1.0610  1.2905  0.0334
  486SOL    HW2 1273   2.980   3.078   1.296 -0.5402 -1.2254  0.8410
  487SOL     OW 1274   0.617   0.049   1.538  0.0002  0.5124 -0.3996
  487SOL    HW1 1275   0.631   0.053   1.443 -0.7997 -0.5828 -0.5828
  487SOL    HW2 1276   0.647  -0.038   1.563 -0.6815  0.4423  0.1905
  488SOL     OW 1277   0.147   1.632   2.607 -0.0728  0.2349 -0.1536
  488SOL    HW1 1278   0.056   1.659   2.607 -0.7481 -1.8600 -0.3407
  488SOL    HW2 1279   0.160   1.592   2.694  0.4354 -0.1839 -0.4168
  489SOL     OW 1280   2.430   0.202   2.341 -0.3149  0.8719 -0.1534
  489SOL    HW1 1281   2.431   0.245   2.255 -0.8821  0.1283 -0.5373
  489SOL    HW2 1282   2.402   0.271   2.402 -0.4216  1.2639 -0.6407
  490SOL     OW 1283   0.169   1.545   2.880  0.5640  0.1669 -0.0331
  490SOL    HW1 1284   0.162   1.508   2.968  2.0732 -0.9201 -0.3341
  490SOL    HW2 1285   0.242   1.606   2.885  1.6190 -0.9755 -0.8402
  491SOL     OW 1286   3.013   1.874   2.922 -0.1552  0.0055  0.0983
  491SOL    HW1 1287   3.042   1.961   2.893  0.5872 -0.8532 -1.9434
  491SOL    HW2 1288   3.088   1.839   2.971  0.5303 -0.3789 -1.1633
  492SOL     OW 1289   1.309   2.716   2.737 -0.0183  0.3222  0.5543
  492SOL    HW1 1290   1.279   2.702   2.827 -0.5473  0.3649  0.3900
  492SOL    HW2 1291   1.385   2.658   2.728 -2.3137 -2.8460 -0.1938
  493SOL     OW 1292   2.991   2.146   0.133  0.0674 -0.1031  0.4983
  493SOL    HW1 1293   2.955   2.203   0.201  1.4821  1.3489  0.0650
  493SOL    HW2 1294   2.924   2.078   0.121 -1.4448  1.1803  1.3553
  494SOL     OW 1295   1.919   0.159   2.779 -0.2290 -0.1812  0.0270
  494SOL    HW1 1296   1.836   0.157   2.732 -0.4860  0.0213  0.4648
  494SOL    HW2 1297   1.916   0.082   2.835 -0.4694  0.2431  0.6147
  495SOL     OW 1298   0.703   1.182   1.113 -0.1679 -0.3472  0.5767
  495SOL    HW1 1299   0.768   1.238   1.154 -0.9506  0.3843  0.8579
  495SOL    HW2 1300   0.746   1.097   1.104  1.5168  0.5988 -1.0391
  496SOL     OW 1301   0.567   1.464   1.443 -0.1627 -0.1150  0.2361
  496SOL    HW1 1302   0.563   1.494   1.534  0.2924 -0.5847  0.4109
  496SOL    HW2 1303   0.627   1.390   1.444 -0.4525 -0.3656 -0.3852
  497SOL     OW 1304   1.257   1.930   0.966 -0.1823  0.6601 -0.4309
  497SOL    HW1 1305   1.352   1.946   0.963 -0.0560 -0.0116 -0.0628
  497SOL    HW2 1306   1.223   1.981   0.892  0.3215  1.8106  0.0981
  498SOL     OW 1307   1.819   2.640   0.754  0.5115  0.2094 -0.3739
  498SOL    HW1 1308   1.738   2.594   0.731  1.2436 -0.6215 -1.3982
  498SOL    HW2 1309   1.869   2.577   0.807  0.6415  0.5994 -0.0190
  499SOL     OW 1310   2.482   2.502   0.724 -0.1795  0.0487  0.3039
  499SOL    HW1 1311   2.503   2.564   0.794 -0.2400  0.0925  0.2831
  499SOL    HW2 1312   2.457   2.422   0.770 -0.0938  0.0371  0.3307
  500SOL     OW 1313   1.270   2.603   3.013  0.0713 -0.0646 -0.2277
  500SOL    HW1 1314   1.191   2.649   3.041 -0.1288 -1.5509  1.9573
  500SOL    HW2 1315   1.237   2.526   2.966  0.3053  0.2215 -0.8761
  501SOL     OW 1316   0.112   1.277   2.783  0.6049  0.9544  0.1560
  501SOL    HW1 1317   0.079   1.222   2.854  0.3713  0.7407 -0.1129
  501SOL    HW2 1318   0.115   1.365   2.820  2.5818  0.5307  1.1355
  502SOL     OW 1319   0.311   1.772   2.946  0.0756  0.0502  0.6244
  502SOL    HW1 1320   0.295   1.751   3.038  1.5991 -0.5915  0.7676
  502SOL    HW2 1321   0.393   1.822   2.946 -0.0176  0.2407 -0.3700
  503SOL     OW 1322   0.576   3.017   0.882  0.4831  0.1696 -0.3088
  503SOL    HW1 1323   0.649   2.956   0.891  1.2076  0.8948 -1.0400
  503SOL    HW2 1324   0.580   3.072   0.960  2.2211  1.7211 -1.3917
  504SOL     OW 1325   3.057   2.658   2.032  0.2112  1.0449 -0.5372
  504SOL    HW1 1326   2.974   2.643   1.986  0.6146  0.1408 -0.9903
  504SOL    HW2 1327   3.030   2.684   2.120 -0.5933 -0.9716 -0.1115
  505SOL     OW 1328   0.637   0.381   0.673  0.1503  0.2131  0.1254
  505SOL    HW1 1329   0.598   0.445   0.615  0.4475  0.7355  0.4893
  505SOL    HW2 1330   0.677   0.316   0.615  1.0152  1.0754 -0.2759
  506SOL     OW 1331   1.399   2.182   0.256  0.0637  0.3462  0.0377
  506SOL    HW1 1332   1.444   2.216   0.179  0.3674 -1.5337 -0.6695
  506SOL    HW2 1333   1.434   2.233   0.329 -0.0638  2.0090 -1.0115
  507SOL     OW 1334   0.988   1.987   1.337  0.3485  0.5056 -0.0573
  507SOL    HW1 1335   0.962   1.910   1.286  0.9327  0.8841 -0.9537
  507SOL    HW2 1336   1.081   1.975   1.353  1.1353  2.2774 -2.5837
  508SOL     OW 1337   0.086   0.538   1.250  0.3931 -0.2415  0.1997
  508SOL    HW1 1338   0.022   0.488   1.200  1.8671 -1.0856 -0.9336
  508SOL    HW2 1339   0.070   0.629   1.226  0.5164 -0.5631 -1.1927
  509SOL     OW 1340   1.598   0.437   1.631 -0.0826  0.4942  0.1667
  509SOL    HW1 1341   1.575   0.458   1.721  0.2369  0.0921  0.3420
  509SOL    HW2 1342   1.606   0.342   1.629  1.9857  0.6191  0.2291
  510SOL     OW 1343   1.712   1.258   2.181 -0.0435  0.3317  0.3071
  510SOL    HW1 1344   1.788   1.283   2.233  2.0776 -1.6750 -1.6017
  510SOL    HW2 1345   1.722   1.307   2.099  0.9721 -2.1290 -1.1454
  511SOL     OW 1346   2.095   0.055   1.841  0.2928 -0.0359 -0.2884
  511SOL    HW1 1347   2.083   0.131   1.898 -1.9341  0.8021 -1.7356
  511SOL    HW2 1348   2.006   0.027   1.819  1.0787 -1.9072 -1.2815
  512SOL     OW 1349   1.674   0.743   1.089  0.4981 -0.1603  0.0376
  512SOL    HW1 1350   1.597   0.707   1.046  0.4163  1.2123 -1.0635
  512SOL    HW2 1351   1.647   0.759   1.179 -0.5012  0.2239 -0.3170
  513SOL     OW 1352   0.260   1.997   0.444 -0.1286  0.1246  0.4055
  513SOL    HW1 1353   0.339   2.047   0.421 -0.0246 -1.1334 -2.4902
  513SOL    HW2 1354   0.291   1.926   0.499  0.1117  1.7138  2.4135
  514SOL     OW 1355   2.336   1.696   2.272  0.9611 -0.1456  0.8956
  514SOL    HW1 1356   2.241   1.703   2.269  1.0072  0.3112  0.0236
  514SOL    HW2 1357   2.363   1.700   2.180  1.7910 -0.7871  1.0992
  515SOL     OW 1358   2.668   2.662   1.545  0.2553  0.3999  0.1495
  515SOL    HW1 1359   2.584   2.621   1.564  0.0526  0.7391  0.0090
  515SOL    HW2 1360   2.731   2.617   1.601 -0.1442  0.6425  0.7995
  516SOL     OW 1361   1.334   0.507   1.689  0.0923  0.4585  0.7540
  516SOL    HW1 1362   1.259   0.448   1.693 -0.9247  1.6864  0.4813
  516SOL    HW2 1363   1.392   0.476   1.758  0.6301 -2.1672 -0.7232
  517SOL     OW 1364   0.882   0.407   2.568 -0.1255  0.3592  0.3647
  517SOL    HW1 1365   0.875   0.490   2.617 -1.7203  0.6641 -0.3330
  517SOL    HW2 1366   0.913   0.344   2.633 -2.1674  0.7567  1.8106
  518SOL     OW 1367   2.715   2.052   2.859  0.0345  0.0994  0.1328
  518SOL    HW1 1368   2.734   1.963   2.890  2.2169  0.9448  1.5352
  518SOL    HW2 1369   2.683   2.041   2.770  0.4563 -2.0776  0.2014
  519SOL     OW 1370   2.688   1.059   2.163  0.3415 -0.2108  0.4501
  519SOL    HW1 1371   2.595   1.051   2.141  0.8173 -0.8063 -1.5403
  519SOL    HW2 1372   2.720   1.129   2.105  1.3202 -0.6215  0.4795
  520SOL     OW 1373   0.689   1.602   0.791 -0.4883 -0.2056 -0.0790
  520SOL    HW1 1374   0.596   1.578   0.785 -0.0712 -1.7473 -0.7103
  520SOL    HW2 1375   0.716   1.573   0.878 -0.6250  0.3910  0.1678
  521SOL     OW 1376   1.482   2.336   0.752 -0.4750  0.1207 -0.0833
  521SOL    HW1 1377   1.503   2.252   0.791 -2.0308 -0.1092  0.2956
  521SOL    HW2 1378   1.540   2.398   0.797  0.4425 -0.6708 -0.1348
  522SOL     OW 1379   2.328   0.906   1.148  0.1940 -0.0274  0.0770
  522SOL    HW1 1380   2.401   0.947   1.195  0.3134  1.3262 -1.2257
  522SOL    HW2 1381   2.357   0.815   1.136  0.4013 -0.2727  2.0576
  523SOL     OW 1382   0.508   1.056   2.736 -0.6945 -0.2902  0.0629
  523SOL    HW1 1383   0.440   1.090   2.678  0.6831 -0.1696 -1.5453
  523SOL    HW2 1384   0.578   1.121   2.732 -0.6053 -0.2014  2.0133
  524SOL     OW 1385   1.296   0.714   1.082  0.3035  0.2051 -0.2006
  524SOL    HW1 1386   1.231   0.732   1.014  0.1485 -1.3102 -0.4861
  524SOL    HW2 1387   1.248   0.725   1.164  0.0479  0.4050 -0.3749
  525SOL     OW 1388   0.742   0.544   2.802  0.3589  0.4891  0.3522
  525SOL    HW1 1389   0.740   0.574   2.893  2.8528  0.1452  0.6017
  525SOL    HW2 1390   0.789   0.613   2.755 -0.7989  0.6032 -0.6824
  526SOL     OW 1391   2.025   2.307   0.627 -0.0069 -0.9036  0.2451
  526SOL    HW1 1392   2.057   2.395   0.647 -0.7109 -0.0636 -1.9561
  526SOL    HW2 1393   2.008   2.267   0.712  0.4102  1.0500  1.3080
  527SOL     OW 1394   0.877   1.086   2.724  0.4802  0.3363 -0.7303
  527SOL    HW1 1395   0.941   1.042   2.668  1.1996  0.4147  0.0050
  527SOL    HW2 1396   0.856   1.167   2.677  0.9441  0.3198 -0.9716
  528SOL     OW 1397   0.086   0.273   1.483  0.6424  0.3498  0.0674
  528SOL    HW1 1398   0.161   0.330   1.472 -0.0821  1.1803 -0.7271
  528SOL    HW2 1399   0.041   0.276   1.398 -0.4094  0.0558  0.6000
  529SOL     OW 1400   1.428   1.936   1.847 -0.1088  0.2981 -0.1548
  529SOL    HW1 1401   1.445   1.983   1.928 -0.4367 -0.3627  0.3053
  529SOL    HW2 1402   1.342   1.967   1.819  0.2810  1.0032 -0.6001
  530SOL     OW 1403   0.361   0.666   1.740  0.0879 -0.0599 -0.2761
  530SOL    HW1 1404   0.309   0.737   1.703 -1.5070 -1.0659 -0.0338
  530SOL    HW2 1405   0.452   0.697   1.732 -0.5283  1.8900 -0.3913
  531SOL     OW 1406   0.702   1.568   1.060 -0.4550  0.3661 -0.1715
  531SOL    HW1 1407   0.742   1.524   1.135 -0.2864  1.2905  0.3009
  531SOL    HW2 1408   0.608   1.564   1.076 -0.4247  0.4374  0.0195
  532SOL     OW 1409   0.443   1.490   0.732  0.1531 -0.3161  0.4940
  532SOL    HW1 1410   0.418   1.454   0.647  2.5035 -1.1427  0.0925
  532SOL    HW2 1411   0.381   1.451   0.793 -0.4217 -1.1715 -0.5883
  533SOL     OW 1412   1.436   0.066   1.958 -0.5295  0.2632  0.6622
  533SOL    HW1 1413   1.375   0.010   2.005  0.5837  1.0699  3.2248
  533SOL    HW2 1414   1.521   0.049   1.999  0.1445  2.5621  0.3641
  534SOL     OW 1415   2.269   0.952   0.409 -0.0912 -0.9569 -0.4986
  534SOL    HW1 1416   2.300   0.900   0.335 -0.0159 -1.7916  0.1123
  534SOL    HW2 1417   2.202   0.897   0.451 -0.6982 -0.1667 -0.3991
  535SOL     OW 1418   1.460   0.179   0.026  0.2328 -0.8119 -0.4120
  535SOL    HW1 1419   1.442   0.085   0.028  0.0331 -0.7612  1.7216
  535SOL    HW2 1420   1.380   0.218  -0.009  1.2113 -1.5446 -3.8369
  536SOL     OW 1421   2.225   2.844   1.074 -0.4552 -0.0188 -0.1652
  536SOL    HW1 1422   2.142   2.877   1.108  0.0946  1.0969  0.1487
  536SOL    HW2 1423   2.205   2.756   1.041 -1.1513 -0.9599  2.5108
  537SOL     OW 1424   1.639   0.821   0.040 -0.2740 -0.6449  0.2939
  537SOL    HW1 1425   1.559   0.796  -0.005 -1.1085  0.0897  1.2956
  537SOL    HW2 1426   1.687   0.739   0.052 -0.5840 -1.0079 -0.8360
  538SOL     OW 1427   2.682   2.977   0.141  0.0932  0.4279  0.4337
  538SOL    HW1 1428   2.677   3.003   0.049  0.4163  0.6703  0.4811
  538SOL    HW2 1429   2.733   2.896   0.140  0.1093  0.4384  0.4012
  539SOL     OW 1430   0.493   0.857   1.981 -0.3482 -0.1820  0.2950
  539SOL    HW1 1431   0.503   0.762   1.977 -0.7684 -0.2964  1.4725
  539SOL    HW2 1432   0.580   0.889   2.007  0.1871 -0.0996 -1.4836
  540SOL     OW 1433   2.389   1.430   1.370 -0.1538  0.6114  0.2947
  540SOL    HW1 1434   2.311   1.449   1.421 -0.3673 -0.7069  0.4774
  540SOL    HW2 1435   2.462   1.457   1.426 -0.4448  1.0879  0.4458
  541SOL     OW 1436   1.270   2.270   1.657  0.7675  0.1537 -0.2242
  541SOL    HW1 1437   1.286   2.292   1.566  2.7163  1.8149  0.4380
  541SOL    HW2 1438   1.190   2.317   1.680  0.3615 -0.1368 -1.0097
  542SOL     OW 1439   1.179   2.539   1.179 -0.2425 -0.8552  0.7172
  542SOL    HW1 1440   1.273   2.526   1.178 -0.2706 -1.0593 -0.2928
  542SOL    HW2 1441   1.142   2.457   1.148 -0.7382 -0.6718  0.7994
  543SOL     OW 1442   0.155   1.573   1.270 -0.1035 -0.3786  0.4315
  543SOL    HW1 1443   0.152   1.662   1.306  0.6573 -0.8817  1.8096
  543SOL    HW2 1444   0.113   1.581   1.185  0.2756  1.3833  0.3599
  544SOL     OW 1445   1.083   1.015   2.159  0.1941 -0.4649 -0.1844
  544SOL    HW1 1446   1.154   0.953   2.178 -0.8457 -1.8227 -0.5785
  544SOL    HW2 1447   1.011   0.987   2.215 -0.3068  0.4193 -0.3644
  545SOL     OW 1448   1.644   1.027   1.820  0.2179  0.4354 -0.3272
  545SOL    HW1 1449   1.678   0.939   1.805 -1.2856 -0.1869 -0.2535
  545SOL    HW2 1450   1.638   1.034   1.916  2.8169  1.6409 -0.1787
  546SOL     OW 1451   0.425   1.061   1.803 -0.2775  0.1854  0.6480
  546SOL    HW1 1452   0.396   1.005   1.730  0.2791 -0.1700  0.6917
  546SOL    HW2 1453   0.446   0.999   1.873  0.6505  0.4235  0.5874
  547SOL     OW 1454   0.087   1.044   2.428  0.4592  0.2377 -0.4857
  547SOL    HW1 1455   0.007   1.064   2.380 -0.1003  2.1530  1.1130
  547SOL    HW2 1456   0.091   1.110   2.498  1.8591 -1.6440  1.3490
  548SOL     OW 1457   1.957   0.670   0.252  0.1432  0.1818 -0.1740
  548SOL    HW1 1458   1.979   0.635   0.166  0.0806  0.1967 -0.1956
  548SOL    HW2 1459   1.979   0.763   0.246 -0.5986  0.3497 -0.4254
  549SOL     OW 1460   1.736   0.581   0.363  0.1851  0.6371 -0.1462
  549SOL    HW1 1461   1.783   0.556   0.443  1.5598  1.0095 -0.8057
  549SOL    HW2 1462   1.805   0.606   0.302 -0.7023 -1.4282 -2.1054
  550SOL     OW 1463   2.691   0.074   2.246  0.4092 -0.4742  0.5392
  550SOL    HW1 1464   2.611   0.126   2.249  0.2220 -0.7620  0.5485
  550SOL    HW2 1465   2.761   0.139   2.240  0.2102 -0.2044  1.1124
  551SOL     OW 1466   1.533   1.326   2.786  0.7298 -0.6973 -0.0551
  551SOL    HW1 1467   1.481   1.403   2.763  0.4533 -0.1035  2.2698
  551SOL    HW2 1468   1.509   1.261   2.720  1.0899  1.2076 -2.1790
  552SOL     OW 1469   2.607   2.781   0.547 -0.1894 -0.0528  0.0163
  552SOL    HW1 1470   2.628   2.708   0.489 -0.9604 -1.1004  1.0084
  552SOL    HW2 1471   2.562   2.741   0.622 -0.8401  1.4614  0.4891
  553SOL     OW 1472   1.123   0.682   2.655  0.3408  0.3814 -0.6195
  553SOL    HW1 1473   1.156   0.593   2.666  1.7086  1.0757  1.3333
  553SOL    HW2 1474   1.179   0.719   2.586  2.8975  1.0740  1.6484
  554SOL     OW 1475   0.776   2.570   3.100 -0.2772 -0.3163 -0.1354
  554SOL    HW1 1476   0.729   2.624   3.163 -2.3989 -3.3937  1.1529
  554SOL    HW2 1477   0.737   2.592   3.015 -0.9718  0.2801  0.3252
  555SOL     OW 1478   1.992   0.595   1.363  0.2961 -0.3891  0.1317
  555SOL    HW1 1479   2.070   0.561   1.319 -1.0794 -1.0386 -1.9601
  555SOL    HW2 1480   1.999   0.562   1.452  2.8428  0.3558  0.2967
  556SOL     OW 1481   2.850   1.124   1.355 -0.0179  0.2251  0.2311
  556SOL    HW1 1482   2.908   1.190   1.393 -1.0943  1.7759 -0.7120
  556SOL    HW2 1483   2.774   1.174   1.323 -1.5037 -1.6228  0.6684
  557SOL     OW 1484   0.946   0.569   2.018  0.3798 -0.1982 -0.0339
  557SOL    HW1 1485   0.973   0.477   2.011 -0.3672 -0.3372 -1.6799
  557SOL    HW2 1486   0.863   0.567   2.065  2.1425  0.0584  3.3783
  558SOL     OW 1487   0.895   1.533   0.610 -0.4585 -0.2386  0.0863
  558SOL    HW1 1488   0.826   1.552   0.674  0.2392 -1.7129  1.3425
  558SOL    HW2 1489   0.852   1.539   0.525 -1.4204  1.7885  0.6459
  559SOL     OW 1490   0.630   1.744   0.449  0.2563  0.6155 -0.0728
  559SOL    HW1 1491   0.615   1.768   0.358  0.2488 -0.1823 -0.2931
  559SOL    HW2 1492   0.640   1.648   0.447 -1.8870  0.3094  1.0337
  560SOL     OW 1493   0.926   1.585   2.504 -0.0612 -0.0691  0.2684
  560SOL    HW1 1494   0.860   1.624   2.446 -0.9183 -0.8831  0.6744
  560SOL    HW2 1495   1.009   1.604   2.461 -0.6698 -0.6272 -1.2315
  561SOL     OW 1496   0.067   2.852   1.889 -1.0891  0.4875 -0.0742
  561SOL    HW1 1497   0.040   2.776   1.939 -0.0464 -0.8401 -1.4317
  561SOL    HW2 1498   0.106   2.816   1.809  0.7986  2.3949 -0.1078
  562SOL     OW 1499   2.906   0.779   0.196  0.0766 -0.1784  0.5273
  562SOL    HW1 1500   2.833   0.801   0.139  0.3747 -0.0857  0.1743
  562SOL    HW2 1501   2.951   0.862   0.211  0.2785 -0.2819  0.5034
  563SOL     OW 1502   2.249   0.795   2.552 -0.2732 -0.2794  0.1037
  563SOL    HW1 1503   2.340   0.813   2.532 -0.7624  0.5603 -1.5630
  563SOL    HW2 1504   2.250   0.755   2.639  1.4744  1.8410  1.1444
  564SOL     OW 1505   0.337   1.293   0.903  0.6872  0.2805 -0.4234
  564SOL    HW1 1506   0.329   1.314   0.996  0.0373 -1.1422 -0.1377
  564SOL    HW2 1507   0.247   1.293   0.871  0.4782 -2.9175 -0.1588
  565SOL     OW 1508   2.669   1.658   0.589 -0.2561  0.3026 -0.6807
  565SOL    HW1 1509   2.653   1.622   0.502  1.1215  1.0175 -1.2688
  565SOL    HW2 1510   2.633   1.593   0.649  0.3721 -1.0825 -1.7393
  566SOL     OW 1511   2.682   2.733   1.273 -0.4111  0.4501 -0.0941
  566SOL    HW1 1512   2.689   2.703   1.364  1.6055  1.9007  0.3017
  566SOL    HW2 1513   2.724   2.665   1.221 -1.4566 -0.3245  0.0576
  567SOL     OW 1514   2.904   0.427   2.858  0.0033 -0.2713 -0.7895
  567SOL    HW1 1515   2.875   0.395   2.772  1.6157 -0.3806 -1.3246
  567SOL    HW2 1516   2.877   0.359   2.919 -1.7616  0.1073 -1.0694
  568SOL     OW 1517   0.007   2.569   0.942  0.1093  0.0401  0.0729
  568SOL    HW1 1518   0.090   2.526   0.962  0.1305 -0.4839 -1.0433
  568SOL    HW2 1519  -0.059   2.501   0.953 -0.1195  0.3233  0.4750
  569SOL     OW 1520   0.772   1.885   0.611 -0.0246 -0.3659  0.2486
  569SOL    HW1 1521   0.732   1.829   0.544  0.6387  0.4733 -0.8870
  569SOL    HW2 1522   0.719   1.870   0.689 -2.4934  0.5763 -1.1242
  570SOL     OW 1523   0.159   0.663   1.993 -0.6201 -0.3932 -0.1220
  570SOL    HW1 1524   0.209   0.594   1.949 -0.1372  0.9509 -1.7588
  570SOL    HW2 1525   0.081   0.675   1.938 -1.2275 -0.3436  0.7303
  571SOL     OW 1526   3.079   2.423   1.606 -0.0477  0.6438  0.7846
  571SOL    HW1 1527   3.093   2.355   1.673 -1.3055  0.4754  0.9005
  571SOL    HW2 1528   3.010   2.479   1.643 -0.7056  0.5933 -0.3302
  572SOL     OW 1529   0.283   1.283   1.670 -0.1411 -0.6795 -0.3829
  572SOL    HW1 1530   0.224   1.336   1.723  0.5046  1.8038 -1.9661
  572SOL    HW2 1531   0.337   1.236   1.733  1.0062  2.5682  1.2553
  573SOL     OW 1532   1.650   0.765   1.380 -0.2786 -0.2839 -0.1882
  573SOL    HW1 1533   1.607   0.843   1.414  0.1557 -0.2744  0.3594
  573SOL    HW2 1534   1.618   0.694   1.436  0.4729 -0.2620  0.2830
  574SOL     OW 1535   2.336   1.077   2.483  0.5045  0.5816  0.4578
  574SOL    HW1 1536   2.252   1.104   2.519  1.5959  1.7079  2.3080
  574SOL    HW2 1537   2.313   1.026   2.405 -1.9906 -1.4019  2.2975
  575SOL     OW 1538   3.072   2.210   2.608  0.1257  0.3763 -0.0149
  575SOL    HW1 1539   3.015   2.208   2.531 -0.9590  0.0605  0.7672
  575SOL    HW2 1540   3.158   2.183   2.576 -0.9135 -2.5603 -0.6375
  576SOL     OW 1541   2.761   0.172   1.652  0.0847 -0.2704  0.1076
  576SOL    HW1 1542   2.669   0.164   1.676  0.1300  1.7296  1.1608
  576SOL    HW2 1543   2.807   0.113   1.712 -0.2953  0.8179  1.5206
  577SOL     OW 1544   2.253   0.800   0.746 -0.4757  0.2520  0.0404
  577SOL    HW1 1545   2.219   0.714   0.769  0.3773  0.1055  0.7917
  577SOL    HW2 1546   2.195   0.831   0.676 -0.2377 -1.3194 -0.8922
  578SOL     OW 1547   3.096   2.237   2.993 -0.6252  0.3238  0.0780
  578SOL    HW1 1548   3.003   2.251   2.972 -1.2604 -1.4833  1.4103
  578SOL    HW2 1549   3.099   2.235   3.088  0.9594  1.1875  0.0752
  579SOL     OW 1550   2.752   2.463   2.618  0.1476  0.4908  0.0808
  579SOL    HW1 1551   2.755   2.370   2.596  2.0680  0.6177 -0.4146
  579SOL    HW2 1552   2.726   2.507   2.537  0.6928  0.4822 -0.1015
  580SOL     OW 1553   0.176   0.975   0.315 -0.2670  0.3176  0.3224
  580SOL    HW1 1554   0.187   0.888   0.354  2.5654  0.2002 -0.4667
  580SOL    HW2 1555   0.196   1.035   0.387 -3.0439  0.4470  1.0993
  581SOL     OW 1556   2.705   0.257   0.159 -0.2437 -0.4515  0.1956
  581SOL    HW1 1557   2.756   0.206   0.222  2.5063  0.7939 -0.8786
  581SOL    HW2 1558   2.726   0.348   0.178 -0.7371  0.0257 -1.3902
  582SOL     OW 1559   0.882   0.031   1.333 -0.0181  0.2021 -0.6954
  582SOL    HW1 1560   0.925   0.017   1.248  0.9774  0.8617 -0.3122
  582SOL    HW2 1561   0.867   0.126   1.337 -0.9814  0.0538 -0.5590
  583SOL     OW 1562   1.912   1.381   2.417  0.0786 -0.2659 -0.0386
  583SOL    HW1 1563   1.901   1.469   2.453  1.4802  0.0294 -0.2958
  583SOL    HW2 1564   1.898   1.322   2.491  0.3674  0.2258  0.4075
  584SOL     OW 1565   0.016   2.396   2.067  0.2519  0.0707 -0.1795
  584SOL    HW1 1566  -0.008   2.485   2.040  0.3896  0.1768  0.0500
  584SOL    HW2 1567   0.032   2.351   1.984 -2.5482 -0.5499 -0.4981
  585SOL     OW 1568   2.986   1.671   0.665  0.5542 -0.0895  0.2209
  585SOL    HW1 1569   2.968   1.595   0.610 -0.0599  0.7744 -0.8146
  585SOL    HW2 1570   2.910   1.677   0.723  2.3612 -2.5532  3.1042
  586SOL     OW 1571   3.014   3.074   2.152 -0.4297 -0.5732 -0.1951
  586SOL    HW1 1572   3.008   3.026   2.235 -1.5383  0.3761  0.2942
  586SOL    HW2 1573   2.975   3.160   2.171  0.8931  0.2967 -1.2320
  587SOL     OW 1574   1.086   1.190   0.286 -0.2455  0.2853 -0.1210
  587SOL    HW1 1575   1.024   1.210   0.355  0.8429  0.5469  0.8030
  587SOL    HW2 1576   1.121   1.104   0.308 -0.2182  0.1671 -0.5965
  588SOL     OW 1577   1.879   0.211   1.365 -0.0309  0.2321 -0.4190
  588SOL    HW1 1578   1.825   0.289   1.354 -0.9492 -0.2049  0.7985
  588SOL    HW2 1579   1.821   0.138   1.341  0.3229 -0.1855 -0.0349
  589SOL     OW 1580   2.967   0.381   1.097 -0.2723  0.1901  0.2534
  589SOL    HW1 1581   3.002   0.349   1.014 -0.7394 -0.2686  0.2276
  589SOL    HW2 1582   2.886   0.331   1.109 -0.4589  0.6103  0.7399
  590SOL     OW 1583   1.234   0.753   1.344  0.1453 -0.1394 -0.6322
  590SOL    HW1 1584   1.156   0.725   1.392  0.4855  0.7791  0.4982
  590SOL    HW2 1585   1.306   0.706   1.386  0.3254 -0.1733 -0.9762
  591SOL     OW 1586   0.788   2.375   2.636  0.1722  0.5598 -0.2047
  591SOL    HW1 1587   0.744   2.460   2.631 -0.0869  0.3574 -2.0774
  591SOL    HW2 1588   0.809   2.353   2.546 -0.0950 -1.5482  0.1897
  592SOL     OW 1589   2.722   1.321   2.745  0.6320  0.2512 -0.0177
  592SOL    HW1 1590   2.685   1.233   2.752  0.4485  0.3507  0.2567
  592SOL    HW2 1591   2.790   1.313   2.677 -0.7504  0.3639 -1.4727
  593SOL     OW 1592   1.604   1.756   2.845  0.0096  0.1306  0.5755
  593SOL    HW1 1593   1.548   1.678   2.843  1.0174 -0.6295 -1.8596
  593SOL    HW2 1594   1.542   1.829   2.852 -1.1716 -0.7716  0.0656
  594SOL     OW 1595   1.793   0.577   1.841  0.6909  0.1130  0.2139
  594SOL    HW1 1596   1.817   0.562   1.932 -0.3117  2.4299  0.9408
  594SOL    HW2 1597   1.748   0.497   1.814 -0.5608  0.0296  2.3359
  595SOL     OW 1598   1.667   2.356   2.165 -0.3225 -0.0774  0.7503
  595SOL    HW1 1599   1.708   2.441   2.149  0.9320 -0.9456 -1.0004
  595SOL    HW2 1600   1.613   2.370   2.242 -0.5787  2.4568  0.2116
  596SOL     OW 1601   1.557   2.797   0.997  0.1358  0.6914  0.5033
  596SOL    HW1 1602   1.628   2.751   1.042 -0.2013  2.2698  2.8542
  596SOL    HW2 1603   1.591   2.817   0.910  1.6288 -0.7092  0.7276
  597SOL     OW 1604   2.643   2.305   0.164  0.3595 -0.0443 -0.2588
  597SOL    HW1 1605   2.607   2.276   0.080  0.6471  0.9174 -0.7229
  597SOL    HW2 1606   2.703   2.375   0.141  1.3697 -0.5828  0.6498
  598SOL     OW 1607   1.673   2.789   2.841 -0.3248  0.8730 -0.2237
  598SOL    HW1 1608   1.634   2.732   2.775  1.2640  1.4728 -1.7666
  598SOL    HW2 1609   1.735   2.843   2.791  0.9498  1.3401  1.7797
  599SOL     OW 1610   0.744   1.718   1.580 -0.1298 -0.1106 -0.2537
  599SOL    HW1 1611   0.791   1.720   1.663  0.0599 -0.3877 -0.3486
  599SOL    HW2 1612   0.661   1.674   1.599  0.3152 -1.0457 -0.3968
  600SOL     OW 1613   2.631   1.799   1.101  0.2359 -0.1489  0.6312
  600SOL    HW1 1614   2.556   1.800   1.160  0.9809 -1.1822  1.6405
  600SOL    HW2 1615   2.606   1.737   1.032  0.1493 -0.4664  0.9446
  601SOL     OW 1616   2.949   1.963   2.570 -0.1977  0.1412 -0.7312
  601SOL    HW1 1617   3.022   1.935   2.515 -0.2473 -0.9926 -0.2487
  601SOL    HW2 1618   2.987   2.028   2.629  0.0635  0.6844 -1.4819
  602SOL     OW 1619   2.827   1.200   2.453  0.6114  0.5032  0.0696
  602SOL    HW1 1620   2.907   1.213   2.505  1.0280  1.2513 -0.7234
  602SOL    HW2 1621   2.853   1.224   2.364 -1.0812  3.0625  0.1601
  603SOL     OW 1622   1.833   0.109   1.012 -0.0122  0.4742 -0.0118
  603SOL    HW1 1623   1.832   0.045   0.941 -1.4160 -0.7135  0.9936
  603SOL    HW2 1624   1.781   0.068   1.082  1.2830  1.5851  1.7000
  604SOL     OW 1625   0.018   2.662   3.079 -0.1682  0.0411 -0.0445
  604SOL    HW1 1626  -0.032   2.587   3.112 -1.6719  0.7510 -0.6157
  604SOL    HW2 1627  -0.018   2.737   3.126  0.3989  0.5794 -0.4595
  605SOL     OW 1628   2.775   2.985   0.439  0.0445  0.0887  0.7249
  605SOL    HW1 1629   2.718   2.922   0.484 -0.9722  0.3770 -0.1147
  605SOL    HW2 1630   2.778   2.955   0.349  1.3173  0.0413  0.7581
  606SOL     OW 1631   2.510   1.447   0.681  0.1920  0.1861 -0.3255
  606SOL    HW1 1632   2.523   1.353   0.666  0.4578 -0.2769  2.3780
  606SOL    HW2 1633   2.415   1.458   0.678  0.0175 -0.5823  1.1460
  607SOL     OW 1634   0.686   2.560   2.420 -0.2350 -0.3711  0.0247
  607SOL    HW1 1635   0.618   2.612   2.377 -0.0886  0.9261  1.2904
  607SOL    HW2 1636   0.767   2.582   2.373 -0.2204  0.3478  0.3785
  608SOL     OW 1637   0.807   2.790   2.067 -0.3565 -0.5548  0.5570
  608SOL    HW1 1638   0.869   2.782   1.995 -0.1984 -1.3026  0.7722
  608SOL    HW2 1639   0.763   2.705   2.072 -1.6466  0.0659  0.1971
  609SOL     OW 1640   0.599   0.935   1.313  0.3136  0.1689 -0.3345
  609SOL    HW1 1641   0.524   0.878   1.331  0.6462 -0.3293 -0.5115
  609SOL    HW2 1642   0.640   0.896   1.236 -0.5194  1.6893 -1.6158
  610SOL     OW 1643   1.096   0.984   2.556  0.0292  0.6348  0.1063
  610SOL    HW1 1644   1.140   0.912   2.511 -1.9442 -1.2190  0.9372
  610SOL    HW2 1645   1.139   0.990   2.641 -0.2768 -0.1060  0.3205
  611SOL     OW 1646   0.155   2.660   1.663  0.1904 -0.3804 -0.3436
  611SOL    HW1 1647   0.110   2.585   1.624 -0.2026 -0.2617 -0.1284
  611SOL    HW2 1648   0.237   2.624   1.696 -0.2137 -0.8268  0.1963
  612SOL     OW 1649   1.832   0.059   1.731 -0.3618 -0.1561 -0.4996
  612SOL    HW1 1650   1.743   0.074   1.699 -0.2905  0.3096 -0.4740
  612SOL    HW2 1651   1.887   0.117   1.678 -0.5701  3.1000  2.5245
  613SOL     OW 1652   2.293   2.022   2.790 -0.1914 -0.1121  0.0355
  613SOL    HW1 1653   2.318   1.947   2.736  2.7819  1.1902 -0.5749
  613SOL    HW2 1654   2.338   2.097   2.750 -3.9590  2.3512 -0.1379
  614SOL     OW 1655   0.912   2.410   2.910 -0.0790 -0.1245 -0.7523
  614SOL    HW1 1656   0.886   2.467   2.982  0.9686 -1.1871  0.5187
  614SOL    HW2 1657   0.851   2.431   2.839 -0.7215  1.4125  0.2104
  615SOL     OW 1658   0.634   2.438   0.822 -0.2017 -0.6163  0.5666
  615SOL    HW1 1659   0.722   2.457   0.789  0.1297 -0.3181  1.5828
  615SOL    HW2 1660   0.578   2.444   0.745  0.8137 -2.0051 -0.3486
  616SOL     OW 1661   1.866   2.246   2.374 -0.4690  0.3062 -0.3995
  616SOL    HW1 1662   1.917   2.270   2.297 -1.2168  0.2211 -0.9396
  616SOL    HW2 1663   1.805   2.319   2.386 -0.1290  0.4839  0.3331
  617SOL     OW 1664   2.684   0.980   2.423  0.1929  0.4171  0.3641
  617SOL    HW1 1665   2.736   1.040   2.476  0.1548 -0.2866  1.2151
  617SOL    HW2 1666   2.687   1.017   2.335  1.3929  0.8729  0.5775
  618SOL     OW 1667   2.831   0.597   1.659 -0.4429  0.0046  0.3905
  618SOL    HW1 1668   2.877   0.652   1.722 -0.2789  0.9027 -0.4890
  618SOL    HW2 1669   2.899   0.538   1.625 -0.5344 -0.4910  1.0409
  619SOL     OW 1670   1.673   0.042   1.256  0.0038 -0.0264 -0.2383
  619SOL    HW1 1671   1.632  -0.043   1.270 -0.1587  0.0806 -0.0629
  619SOL    HW2 1672   1.607   0.106   1.283 -0.2893  0.1926 -1.4259
  620SOL     OW 1673   2.882   0.453   0.759 -0.3911  0.2593  0.1250
  620SOL    HW1 1674   2.891   0.514   0.832 -0.5885 -0.8525  1.1191
  620SOL    HW2 1675   2.937   0.378   0.784 -2.0480 -1.0091  0.1049
  621SOL     OW 1676   2.051   1.522   2.046 -0.3891 -0.5902 -0.1108
  621SOL    HW1 1677   2.118   1.483   1.990  0.6338 -1.0184  1.3404
  621SOL    HW2 1678   2.044   1.613   2.015 -0.5115 -1.0426 -1.4847
  622SOL     OW 1679   1.085   2.154   2.468  0.9104 -0.5245 -0.1215
  622SOL    HW1 1680   1.041   2.235   2.442  0.9288 -0.7700 -0.9217
  622SOL    HW2 1681   1.143   2.181   2.540 -0.7559 -0.2582  1.1775
  623SOL     OW 1682   0.445   0.055   0.229  0.5337 -0.1898 -0.1082
  623SOL    HW1 1683   0.505   0.027   0.159 -0.6298 -0.9246 -0.8333
  623SOL    HW2 1684   0.447  -0.017   0.292 -0.1172 -0.5473 -0.4843
  624SOL     OW 1685   0.170   1.741   0.307 -0.4199 -0.3490  0.7166
  624SOL    HW1 1686   0.224   1.804   0.355  1.3722  0.5329 -2.1844
  624SOL    HW2 1687   0.096   1.723   0.365 -0.8840  4.1560  1.8733
  625SOL     OW 1688   1.684   0.305   0.318 -0.5027  0.0145  0.4486
  625SOL    HW1 1689   1.711   0.395   0.337  0.9486 -0.4325  0.6245
  625SOL    HW2 1690   1.705   0.257   0.398 -1.2401 -0.4954  0.3427
  626SOL     OW 1691   3.011   0.387   1.645  0.4633  0.1705 -0.1061
  626SOL    HW1 1692   2.926   0.345   1.646 -0.0631  1.1796 -0.7637
  626SOL    HW2 1693   3.069   0.324   1.601  0.0650 -0.5132  0.3419
  627SOL     OW 1694   0.204   2.165   0.779 -0.3021  0.2375  0.5397
  627SOL    HW1 1695   0.269   2.101   0.750  0.3701  0.7773  0.8327
  627SOL    HW2 1696   0.144   2.173   0.705  0.7374  0.7362 -0.2800
  628SOL     OW 1697   1.552   1.722   0.741  0.2774  0.3958  0.0107
  628SOL    HW1 1698   1.474   1.717   0.686  1.0897 -0.2403 -1.1352
  628SOL    HW2 1699   1.618   1.671   0.694  2.1666  2.9480 -0.3459
  629SOL     OW 1700   1.403   0.351   0.294 -0.2234  0.0204 -0.8649
  629SOL    HW1 1701   1.354   0.413   0.240  0.6047  0.4704 -1.1178
  629SOL    HW2 1702   1.475   0.322   0.238 -0.7534 -1.4081 -0.8534
  630SOL     OW 1703   2.535   1.993   1.902  0.2601  0.0142 -0.0180
  630SOL    HW1 1704   2.627   2.015   1.886 -0.4522  2.0767 -1.6771
  630SOL    HW2 1705   2.501   2.068   1.952 -1.4586  1.3961 -2.9931
  631SOL     OW 1706   2.446   2.480   1.312  0.1064  0.0995  0.1749
  631SOL    HW1 1707   2.398   2.476   1.229  0.1012 -2.0937  0.2254
  631SOL    HW2 1708   2.537   2.466   1.288  0.0128 -1.3640  0.5681
  632SOL     OW 1709   0.309   1.037   0.760  0.3398  0.4007 -0.4047
  632SOL    HW1 1710   0.294   1.123   0.798 -0.2353  0.3313 -0.4742
  632SOL    HW2 1711   0.303   0.976   0.833 -0.2867  0.3165 -0.5221
  633SOL     OW 1712   0.334   1.604   1.632 -0.2038 -0.1206  0.2222
  633SOL    HW1 1713   0.354   1.513   1.653  0.3188  0.2602  1.4179
  633SOL    HW2 1714   0.368   1.655   1.706 -0.9132  1.0076 -0.1945
  634SOL     OW 1715   0.027   1.699   1.577  0.0772  0.1468 -0.4202
  634SOL    HW1 1716   0.001   1.627   1.633 -0.0688 -0.2562 -0.9995
  634SOL    HW2 1717   0.123   1.692   1.571  0.1517  0.5384  0.2393
  635SOL     OW 1718   1.317   3.046   1.490 -0.2995 -0.4472  0.5560
  635SOL    HW1 1719   1.250   3.111   1.511  0.1432 -0.0968  0.9030
  635SOL    HW2 1720   1.320   3.045   1.394  1.5504  2.0232  0.4846
  636SOL     OW 1721   1.542   2.561   2.733 -0.1455 -0.5332 -0.1357
  636SOL    HW1 1722   1.531   2.502   2.659 -1.5714 -0.5710  0.0753
  636SOL    HW2 1723   1.593   2.510   2.797 -1.1085 -1.4396 -0.0741
  637SOL     OW 1724   0.864   2.983   2.252 -0.0524 -0.4112  0.0445
  637SOL    HW1 1725   0.857   2.968   2.158 -0.9288 -1.2022  0.2231
  637SOL    HW2 1726   0.866   3.078   2.261 -1.6960 -0.2758 -0.6856
  638SOL     OW 1727   1.491   2.013   2.722  0.0086 -0.1402  0.0470
  638SOL    HW1 1728   1.472   2.069   2.797  0.1793  0.4639 -0.3579
  638SOL    HW2 1729   1.585   1.998   2.726 -0.0932 -0.7679  0.3979
  639SOL     OW 1730   0.140   0.046   1.704  0.1372 -0.5500  0.0147
  639SOL    HW1 1731   0.197   0.104   1.652 -1.1307  0.5262 -0.2427
  639SOL    HW2 1732   0.180  -0.040   1.696  1.0823 -0.0413 -1.1184
  640SOL     OW 1733   0.325   2.806   1.291 -0.1757  0.3155 -0.0478
  640SOL    HW1 1734   0.318   2.711   1.285 -0.4668  0.3214  0.1351
  640SOL    HW2 1735   0.242   2.833   1.331  0.5790  0.4989  1.4602
  641SOL     OW 1736   1.781   1.400   1.232  0.3296  0.6305 -0.6884
  641SOL    HW1 1737   1.705   1.346   1.215  0.1141  1.1351 -1.3532
  641SOL    HW2 1738   1.827   1.355   1.303  1.0079 -1.2721 -2.2407
  642SOL     OW 1739   1.135   2.982   1.235  0.4131 -0.3850 -0.0914
  642SOL    HW1 1740   1.060   3.008   1.181  0.9892 -0.5053 -0.9668
  642SOL    HW2 1741   1.121   2.889   1.253  0.5749 -0.5144 -0.6268
  643SOL     OW 1742   0.545   0.564   2.009  0.4148 -1.0459 -0.0600
  643SOL    HW1 1743   0.469   0.524   1.967  0.3548 -0.1184 -0.8972
  643SOL    HW2 1744   0.587   0.613   1.938 -0.0123  1.0559  1.0637
  644SOL     OW 1745   0.430   0.327   0.249 -0.2077  0.5187 -0.4481
  644SOL    HW1 1746   0.523   0.337   0.270 -0.0697 -1.4503  0.1089
  644SOL    HW2 1747   0.415   0.233   0.253 -2.3224  0.8245 -0.1703
  645SOL     OW 1748   2.821   0.121   0.370 -0.0517 -0.0188 -0.2782
  645SOL    HW1 1749   2.743   0.170   0.394 -0.3465  0.1156 -1.4306
  645SOL    HW2 1750   2.810   0.035   0.411 -0.8173 -0.0011 -0.4385
  646SOL     OW 1751   1.346   1.207   0.986  0.2671  0.4910 -0.2355
  646SOL    HW1 1752   1.328   1.249   0.902 -0.3465 -0.8336 -0.7988
  646SOL    HW2 1753   1.366   1.116   0.964 -0.8347 -0.1228  1.1247
  647SOL     OW 1754   2.285   2.790   1.991  0.0958  0.4367  0.5059
  647SOL    HW1 1755   2.321   2.710   2.030  0.3800 -0.1694 -0.9533
  647SOL    HW2 1756   2.276   2.770   1.898 -2.5103  1.1408  0.5393
  648SOL     OW 1757   1.677   2.692   1.816 -0.4839  0.3476  0.2127
  648SOL    HW1 1758   1.730   2.645   1.752 -0.5078 -0.7599  0.9850
  648SOL    HW2 1759   1.589   2.657   1.804 -0.2504 -0.8983  1.7344
  649SOL     OW 1760   2.921   1.672   1.157 -0.0502  0.3641 -0.3338
  649SOL    HW1 1761   2.845   1.675   1.098  1.4291 -0.7673 -2.4416
  649SOL    HW2 1762   2.933   1.579   1.175 -0.2769  0.6768  1.5832
  650SOL     OW 1763   2.454   3.090   0.235  0.0810  0.3546 -0.2633
  650SOL    HW1 1764   2.408   3.008   0.257 -1.3976  0.3659 -2.9453
  650SOL    HW2 1765   2.541   3.061   0.208 -0.8390 -0.5923 -2.4846
  651SOL     OW 1766   1.015   2.494   0.163 -0.0854  0.0367  0.0755
  651SOL    HW1 1767   0.931   2.538   0.148  1.0737  1.6548 -2.2272
  651SOL    HW2 1768   1.019   2.426   0.096  0.8014  0.5799 -0.4453
  652SOL     OW 1769   1.354   0.208   1.742 -0.6011  0.4402 -0.4524
  652SOL    HW1 1770   1.274   0.163   1.714 -0.1359 -0.6026 -0.1690
  652SOL    HW2 1771   1.382   0.159   1.820  1.2214 -0.2802 -1.5125
  653SOL     OW 1772   1.411   0.561   2.136  0.4705 -0.1888  0.7155
  653SOL    HW1 1773   1.484   0.522   2.184  2.0899  0.9336 -0.7381
  653SOL    HW2 1774   1.433   0.654   2.130 -1.3703  0.2855  0.7206
  654SOL     OW 1775   0.681   0.658   3.057  0.2006  0.0064 -0.1978
  654SOL    HW1 1776   0.608   0.598   3.073 -1.8792  2.6970  1.1505
  654SOL    HW2 1777   0.645   0.724   2.998  1.9888  0.7026 -0.5781
  655SOL     OW 1778   0.739   0.210   1.989  0.4419 -0.3985 -0.0556
  655SOL    HW1 1779   0.689   0.225   2.069 -0.4868  1.2301 -0.8834
  655SOL    HW2 1780   0.724   0.117   1.969 -2.8490  0.0984 -0.5643
  656SOL     OW 1781   2.485   0.064   1.169  0.2099  0.3062  0.4611
  656SOL    HW1 1782   2.456   0.043   1.080  0.0693 -1.5900  0.9100
  656SOL    HW2 1783   2.565   0.013   1.180  0.0272  0.2298  1.5537
  657SOL     OW 1784   1.787   1.501   2.048  0.2675  0.1726 -0.1462
  657SOL    HW1 1785   1.880   1.505   2.068 -0.0551  0.5920  1.4626
  657SOL    HW2 1786   1.759   1.593   2.048 -0.2353  0.0225 -0.1451
  658SOL     OW 1787   1.707   0.334   1.917  0.0169 -0.0103 -0.2899
  658SOL    HW1 1788   1.614   0.354   1.921 -0.4336 -2.0306  0.4476
  658SOL    HW2 1789   1.730   0.311   2.007  1.1087 -0.0387 -0.5598
  659SOL     OW 1790   1.501   2.345   0.474 -0.3907 -0.5829 -0.5721
  659SOL    HW1 1791   1.577   2.403   0.464 -1.7698  1.4666  0.0717
  659SOL    HW2 1792   1.486   2.342   0.569 -1.4870 -0.4068 -0.7309
  660SOL     OW 1793   2.898   0.566   2.211  0.3779 -0.3802  0.4526
  660SOL    HW1 1794   2.884   0.654   2.246  1.0970  0.0554 -0.3262
  660SOL    HW2 1795   2.993   0.556   2.208  0.3210 -1.5769  1.4549
  661SOL     OW 1796   2.424   1.239   0.279 -0.4070  0.0535  0.0365
  661SOL    HW1 1797   2.328   1.234   0.285 -0.6795  1.3302 -2.1388
  661SOL    HW2 1798   2.452   1.150   0.258 -1.0153 -0.4762  1.3419
  662SOL     OW 1799   0.606   2.268   2.116 -0.1809  0.2029 -0.2995
  662SOL    HW1 1800   0.596   2.271   2.211  0.5365 -1.3977 -0.1288
  662SOL    HW2 1801   0.679   2.207   2.102 -0.1576  0.5540 -1.8679
  663SOL     OW 1802   2.431   1.787   1.296 -0.0758 -0.4634 -0.3706
  663SOL    HW1 1803   2.442   1.880   1.275  0.0581 -0.0799  1.2126
  663SOL    HW2 1804   2.342   1.766   1.268 -0.5631  0.5051  0.3807
  664SOL     OW 1805   0.024   0.618   0.645 -0.2263  0.0680 -0.6917
  664SOL    HW1 1806  -0.051   0.567   0.615  0.5607 -1.6059  0.0915
  664SOL    HW2 1807  -0.001   0.650   0.732  0.0085 -0.6329 -0.3579
  665SOL     OW 1808   3.056   0.265   0.326  0.5289 -0.2064 -0.1182
  665SOL    HW1 1809   2.994   0.193   0.342  1.3920 -1.0077 -0.2633
  665SOL    HW2 1810   3.022   0.338   0.377  0.0485 -0.9532  0.6557
  666SOL     OW 1811   1.678   3.078   2.134  0.3591  0.0853  0.3461
  666SOL    HW1 1812   1.711   3.053   2.047 -2.5670  0.4065 -0.9702
  666SOL    HW2 1813   1.650   2.996   2.174  0.2003  0.1243  0.3134
  667SOL     OW 1814   1.092   1.150   0.024 -0.3691  0.3279  0.6701
  667SOL    HW1 1815   1.075   1.161   0.117  1.6022 -2.0794  1.4306
  667SOL    HW2 1816   1.168   1.206   0.007  1.6814 -2.0288  1.5178
  668SOL     OW 1817   1.966   1.582   1.297 -0.2465 -0.4179  0.0624
  668SOL    HW1 1818   1.913   1.518   1.250 -0.3902  0.4492 -0.9902
  668SOL    HW2 1819   1.907   1.616   1.365 -0.4796 -0.6924 -0.0001
  669SOL     OW 1820   1.727   1.991   0.733  0.6822  0.0253  0.8034
  669SOL    HW1 1821   1.707   1.897   0.731 -1.0090  0.3602 -0.1636
  669SOL    HW2 1822   1.823   1.995   0.734  0.8393 -1.7206 -0.8280
  670SOL     OW 1823   2.573   1.557   0.940  0.3565  0.0277 -0.1202
  670SOL    HW1 1824   2.482   1.584   0.928  0.6682  0.6075 -1.3754
  670SOL    HW2 1825   2.570   1.461   0.938 -0.6202 -0.1388  3.2747
  671SOL     OW 1826   0.091   1.097   0.931 -0.2692  0.1606 -0.6716
  671SOL    HW1 1827   0.001   1.065   0.936 -0.4229  0.6100 -0.5311
  671SOL    HW2 1828   0.095   1.169   0.993 -0.0411  0.6879 -1.2802
  672SOL     OW 1829   2.997   0.787   2.336 -0.0517  0.4583 -0.0753
  672SOL    HW1 1830   2.969   0.789   2.427 -1.2540  0.1532 -0.4194
  672SOL    HW2 1831   3.092   0.790   2.340  0.0659 -2.1025  1.3050
  673SOL     OW 1832   2.143   2.564   0.709  0.0659  0.3084 -0.1010
  673SOL    HW1 1833   2.117   2.654   0.731  0.2395  0.4348 -0.4020
  673SOL    HW2 1834   2.214   2.544   0.770  0.4674  0.6141 -0.4653
  674SOL     OW 1835   2.463   1.762   2.028  0.7504  0.1341 -0.0437
  674SOL    HW1 1836   2.492   1.836   1.974  0.8441 -1.8492 -2.9575
  674SOL    HW2 1837   2.511   1.687   1.993 -0.3400 -1.5517  1.8654
  675SOL     OW 1838   2.767   2.075   2.178  0.3004 -0.3081 -0.6768
  675SOL    HW1 1839   2.787   2.048   2.088 -1.1351  1.0511 -1.4702
  675SOL    HW2 1840   2.696   2.017   2.205  1.0149 -0.9962 -0.2346
  676SOL     OW 1841   2.275   2.829   3.005 -0.2309  0.2463 -0.4653
  676SOL    HW1 1842   2.294   2.829   3.099  1.6849 -0.4736 -0.7987
  676SOL    HW2 1843   2.287   2.920   2.978 -1.4446  0.5857  0.0715
  677SOL     OW 1844   2.248   2.373   1.715  0.0538 -0.0156 -0.1677
  677SOL    HW1 1845   2.214   2.458   1.744 -1.2379 -0.6252  0.2009
  677SOL    HW2 1846   2.231   2.371   1.621 -2.3644 -0.8748  0.2159
  678SOL     OW 1847   0.962   2.182   1.643 -0.1643  0.3202  0.0223
  678SOL    HW1 1848   0.988   2.251   1.582 -0.4248  1.3186  1.0022
  678SOL    HW2 1849   0.904   2.125   1.592 -1.0895  1.6347 -0.4249
  679SOL     OW 1850   0.474   2.901   1.799  0.2178 -0.3115  0.2405
  679SOL    HW1 1851   0.447   2.940   1.716  0.2802  1.6030  1.0635
  679SOL    HW2 1852   0.417   2.825   1.810 -0.5675  0.0724 -0.9875
  680SOL     OW 1853   1.823   1.145   2.848 -0.5591 -0.1767 -0.4893
  680SOL    HW1 1854   1.770   1.066   2.838 -0.5193 -0.3261  0.4010
  680SOL    HW2 1855   1.761   1.217   2.843 -0.6117 -0.2610 -1.1792
  681SOL     OW 1856   1.191   2.598   1.565 -0.1413 -0.5631  0.3555
  681SOL    HW1 1857   1.152   2.584   1.651 -2.1739  0.2737 -0.3723
  681SOL    HW2 1858   1.247   2.675   1.577 -0.2916 -0.5400  0.9672
  682SOL     OW 1859   2.835   0.633   0.948  0.3115 -0.1382 -0.4265
  682SOL    HW1 1860   2.749   0.605   0.916 -0.3942 -0.3678  1.5346
  682SOL    HW2 1861   2.826   0.636   1.043  2.4179  0.0876 -0.1772
  683SOL     OW 1862   2.570   1.085   2.794  0.5233  0.6359  0.0856
  683SOL    HW1 1863   2.498   1.134   2.834  1.5152  1.4395  0.9462
  683SOL    HW2 1864   2.528   1.031   2.727 -0.8579  1.1668  0.4881
  684SOL     OW 1865   2.601   0.223   2.854 -0.1892 -0.3295  0.2256
  684SOL    HW1 1866   2.579   0.255   2.941  1.4851  0.9997  0.2257
  684SOL    HW2 1867   2.616   0.129   2.865 -0.6184 -0.2836  1.2343
  685SOL     OW 1868   2.568   2.784   2.360  0.0076 -0.0901 -0.6192
  685SOL    HW1 1869   2.483   2.826   2.349  0.2739  0.4997 -0.4471
  685SOL    HW2 1870   2.620   2.846   2.411  0.9592  0.1088 -1.7777
  686SOL     OW 1871   2.396   2.297   0.891 -0.7738 -0.3308  0.0494
  686SOL    HW1 1872   2.326   2.257   0.943 -0.4447 -1.0139 -0.0260
  686SOL    HW2 1873   2.469   2.236   0.898  0.9006  1.7355  2.5995
  687SOL     OW 1874   0.332   2.216   2.055  0.2805  0.4492 -0.4737
  687SOL    HW1 1875   0.406   2.253   2.103 -0.0253  0.8048 -0.2752
  687SOL    HW2 1876   0.370   2.142   2.006  0.3969 -0.6053  1.1300
  688SOL     OW 1877   0.933   0.829   1.912 -0.0503 -0.5405 -0.4167
  688SOL    HW1 1878   0.959   0.743   1.944  1.1928 -0.0871 -0.1632
  688SOL    HW2 1879   0.858   0.853   1.968 -0.9665 -1.7936 -1.0595
  689SOL     OW 1880   0.608   0.845   0.159 -0.0973  0.0128  0.6610
  689SOL    HW1 1881   0.531   0.866   0.107  0.5447  2.0372  0.4407
  689SOL    HW2 1882   0.681   0.854   0.099  0.7927  3.6422  1.9938
  690SOL     OW 1883   2.551   2.504   1.743 -0.3520 -0.2104  0.4348
  690SOL    HW1 1884   2.641   2.526   1.767 -0.5088 -0.6040  1.4107
  690SOL    HW2 1885   2.498   2.572   1.784 -0.5301 -0.1647  0.1337
  691SOL     OW 1886   1.960   1.236   1.396  0.1538 -0.0585  0.9330
  691SOL    HW1 1887   1.920   1.184   1.326  3.5248 -3.0828  0.9484
  691SOL    HW2 1888   1.916   1.206   1.476  0.0905 -0.7563  0.6452
  692SOL     OW 1889   1.874   2.883   0.353 -0.3077  0.2915 -0.3217
  692SOL    HW1 1890   1.899   2.923   0.269  0.2926  0.1164 -0.2253
  692SOL    HW2 1891   1.786   2.849   0.337  0.5094 -1.4158 -1.4883
  693SOL     OW 1892   1.660   1.370   0.172 -0.3538 -0.4187 -0.0144
  693SOL    HW1 1893   1.584   1.411   0.214 -0.2431  1.9242 -1.8906
  693SOL    HW2 1894   1.629   1.345   0.085  0.6435 -0.8138 -0.2671
  694SOL     OW 1895   2.883   0.246   3.063 -0.3157  0.0160 -0.1428
  694SOL    HW1 1896   2.961   0.214   3.108 -0.5059  0.7336  0.7301
  694SOL    HW2 1897   2.814   0.243   3.130 -1.8494 -3.4030 -1.6126
  695SOL     OW 1898   2.684   0.250   2.492  0.1315 -0.5494 -0.0728
  695SOL    HW1 1899   2.656   0.315   2.427 -1.4691  0.9587  1.9873
  695SOL    HW2 1900   2.650   0.167   2.458 -0.2263  0.1144 -1.4066
  696SOL     OW 1901   2.751   0.537   0.214 -0.4556 -0.0621  0.0834
  696SOL    HW1 1902   2.671   0.575   0.251 -0.5542  0.3529 -0.5315
  696SOL    HW2 1903   2.810   0.612   0.203 -0.2134 -0.2697 -0.0390
  697SOL     OW 1904   2.682   3.059   2.883 -0.5077  0.1491  0.1174
  697SOL    HW1 1905   2.627   3.028   2.811  0.5963 -1.2465 -0.1814
  697SOL    HW2 1906   2.721   2.979   2.919  0.0750  0.9549  1.3496
  698SOL     OW 1907   0.738   2.937   1.458 -0.6265 -1.0818 -0.2840
  698SOL    HW1 1908   0.784   3.014   1.424 -0.2746 -0.9207  0.5460
  698SOL    HW2 1909   0.761   2.867   1.397 -1.5250 -0.3951 -1.4687
  699SOL     OW 1910   0.321   1.721   0.896 -0.1260 -0.6794 -0.8032
  699SOL    HW1 1911   0.244   1.688   0.942 -0.2462  0.9659  0.2898
  699SOL    HW2 1912   0.285   1.772   0.823 -0.3658  2.7607  1.4907
  700SOL     OW 1913   0.078   1.099   1.960 -0.2685  0.0654  0.0037
  700SOL    HW1 1914   0.006   1.053   2.004  1.1133 -3.1312 -0.7694
  700SOL    HW2 1915   0.156   1.047   1.981  1.6608  2.6758 -0.2201
  701SOL     OW 1916   1.958   2.585   2.276 -0.4003 -0.6669  0.2546
  701SOL    HW1 1917   1.902   2.618   2.206 -0.2490 -0.7370  0.1011
  701SOL    HW2 1918   2.002   2.509   2.237  0.5425 -0.0261  0.0709
  702SOL     OW 1919   3.104   0.085   2.553  0.0656 -0.4009 -0.0646
  702SOL    HW1 1920   3.039   0.127   2.609  0.0455 -1.0576  0.4289
  702SOL    HW2 1921   3.120   0.147   2.483  0.6165  0.7571  1.0556
  703SOL     OW 1922   2.890   2.875   1.802 -0.3239  0.0036  0.3137
  703SOL    HW1 1923   2.985   2.873   1.811  0.0119 -0.8494 -2.4091
  703SOL    HW2 1924   2.863   2.783   1.812 -0.4585 -0.2177 -1.6738
  704SOL     OW 1925   0.855   0.490   0.484 -0.3885  0.0533  0.4714
  704SOL    HW1 1926   0.861   0.399   0.513 -0.5426  0.3619  1.5450
  704SOL    HW2 1927   0.785   0.490   0.418  0.3165 -0.7705 -0.2932
  705SOL     OW 1928   0.881   0.897   0.032  0.1327 -0.3787  0.0639
  705SOL    HW1 1929   0.869   0.992   0.025  0.0092 -0.4511 -0.8944
  705SOL    HW2 1930   0.969   0.882  -0.004  0.3298 -0.5812  0.6298
  706SOL     OW 1931   2.452   2.335   0.466  0.3859 -0.1827  0.1218
  706SOL    HW1 1932   2.484   2.408   0.519  1.8838  0.8582 -2.0627
  706SOL    HW2 1933   2.394   2.375   0.401  0.2521 -1.0993 -0.3501
  707SOL     OW 1934   2.455   1.948   2.996 -0.3193 -0.3561  0.1088
  707SOL    HW1 1935   2.492   2.028   3.033 -2.4560  0.1417  1.3591
  707SOL    HW2 1936   2.394   1.978   2.929 -0.6951 -0.9532  0.1690
  708SOL     OW 1937   1.253   2.272   2.070  0.1314  0.3096 -0.0395
  708SOL    HW1 1938   1.223   2.333   2.139 -0.7568 -0.4248  0.2388
  708SOL    HW2 1939   1.247   2.323   1.989  0.6521  1.0082  0.3478
  709SOL     OW 1940   1.450   0.771   1.593  0.7689 -0.4926 -0.5190
  709SOL    HW1 1941   1.425   0.679   1.605  0.5711 -0.3584  0.1464
  709SOL    HW2 1942   1.372   0.820   1.620  0.8407 -0.1294 -0.9650
  710SOL     OW 1943   2.494   2.124   0.641 -0.5875  0.2934 -0.1747
  710SOL    HW1 1944   2.445   2.052   0.601 -0.9331  0.4424 -0.0286
  710SOL    HW2 1945   2.472   2.200   0.587 -0.7801  0.4254  0.0857
  711SOL     OW 1946   1.205   1.358   0.716 -0.2061 -0.1769 -0.0008
  711SOL    HW1 1947   1.168   1.446   0.712  0.2101 -0.0140 -0.2949
  711SOL    HW2 1948   1.249   1.346   0.632  2.1601  0.4193  1.0486
  712SOL     OW 1949   2.281   1.581   2.829 -0.1107 -0.1649  0.3955
  712SOL    HW1 1950   2.332   1.556   2.906  0.3291  1.4071  0.6535
  712SOL    HW2 1951   2.198   1.612   2.865  0.1181  0.6311  0.2649
  713SOL     OW 1952   0.351   2.942   1.569  0.2081  0.9609 -0.3725
  713SOL    HW1 1953   0.273   2.896   1.539 -0.7489  1.8712  0.5785
  713SOL    HW2 1954   0.407   2.949   1.492  1.0374 -2.8759 -0.2967
  714SOL     OW 1955   2.044   1.204   3.046 -0.3996  0.1722 -0.2335
  714SOL    HW1 1956   2.070   1.297   3.051 -0.3545  0.1898 -0.7385
  714SOL    HW2 1957   1.958   1.206   3.005 -0.2221 -0.0357 -0.6199
  715SOL     OW 1958   0.856   2.286   2.342  0.3125  0.0818 -0.2104
  715SOL    HW1 1959   0.893   2.294   2.254  2.6600 -1.5188  0.5331
  715SOL    HW2 1960   0.824   2.196   2.346  0.8588 -0.0773  0.7703
  716SOL     OW 1961   3.032   1.897   1.399  0.0150  0.6300  0.1314
  716SOL    HW1 1962   3.050   1.968   1.461  2.1419  0.2280  0.0690
  716SOL    HW2 1963   3.076   1.821   1.437 -0.7424 -0.2237 -0.6647
  717SOL     OW 1964   1.338   2.588   0.403 -0.3030  0.6848 -0.0549
  717SOL    HW1 1965   1.332   2.542   0.320 -0.8708 -0.4897  0.6025
  717SOL    HW2 1966   1.366   2.521   0.466 -0.0311  1.5082  0.7289
  718SOL     OW 1967   1.723   1.508   2.582 -0.1648 -0.7642  0.1901
  718SOL    HW1 1968   1.755   1.597   2.569 -0.7162 -0.7091 -0.9288
  718SOL    HW2 1969   1.763   1.480   2.664 -0.9628  0.9388  1.2037
  719SOL     OW 1970   1.370   0.741   0.610 -0.1775  0.0216 -0.3926
  719SOL    HW1 1971   1.290   0.691   0.598 -0.0653  0.4164 -3.7341
  719SOL    HW2 1972   1.342   0.823   0.651 -1.0546 -0.8349  0.7736
  720SOL     OW 1973   2.828   0.993   2.832  0.3016 -0.1542  0.1148
  720SOL    HW1 1974   2.758   1.030   2.778  0.9135  1.9255  0.6463
  720SOL    HW2 1975   2.813   1.029   2.919  1.2026 -0.8416  0.5749
  721SOL     OW 1976   0.317   1.888   1.656  0.2092 -0.0317 -0.2059
  721SOL    HW1 1977   0.320   1.847   1.570  1.1082 -0.3065 -0.0611
  721SOL    HW2 1978   0.242   1.947   1.653 -0.7288 -1.2124 -0.6366
  722SOL     OW 1979   0.818   2.099   1.961  0.1626 -0.0123  0.2920
  722SOL    HW1 1980   0.788   2.145   1.883  0.0545  0.7867  0.7919
  722SOL    HW2 1981   0.857   2.167   2.016  0.9370 -0.6848  0.6049
  723SOL     OW 1982   0.274   0.343   1.072 -0.7444 -0.0049 -0.1827
  723SOL    HW1 1983   0.238   0.370   1.157  1.7737  0.2952  0.8872
  723SOL    HW2 1984   0.315   0.422   1.038 -0.7884 -0.4048 -1.1780
  724SOL     OW 1985   2.117   1.948   2.533 -0.1842  0.0622  0.3988
  724SOL    HW1 1986   2.192   1.889   2.531  1.0981  1.6210  0.7699
  724SOL    HW2 1987   2.154   2.034   2.552 -2.0240  0.9619  0.1446
  725SOL     OW 1988   1.571   2.903   0.744 -0.5114  0.4801 -0.1661
  725SOL    HW1 1989   1.555   2.975   0.805 -0.5174  0.6020 -0.3133
  725SOL    HW2 1990   1.592   2.945   0.661 -0.0610  0.3168 -0.1365
  726SOL     OW 1991   0.347   0.122   1.918  0.3672 -0.7814  0.1563
  726SOL    HW1 1992   0.270   0.118   1.862  0.7294 -1.1582 -0.3213
  726SOL    HW2 1993   0.325   0.067   1.993  0.4881 -1.5952 -0.3853
  727SOL     OW 1994   2.405   2.845   1.298 -0.8910 -0.2654  0.1869
  727SOL    HW1 1995   2.363   2.844   1.212 -0.8981  1.9602  0.0897
  727SOL    HW2 1996   2.495   2.818   1.282 -0.7804  0.5410 -0.6184
  728SOL     OW 1997   1.362   1.773   0.535 -0.0758 -0.1984  0.0715
  728SOL    HW1 1998   1.418   1.817   0.472 -0.1211  1.3881  1.0948
  728SOL    HW2 1999   1.283   1.751   0.485 -0.2371  1.2951 -0.3832
  729SOL     OW 2000   2.293   1.166   2.143  0.1965  0.0157  0.4000
  729SOL    HW1 2001   2.361   1.205   2.087 -1.2204  1.7405 -0.2369
  729SOL    HW2 2002   2.252   1.241   2.186  0.7479 -1.2111  3.2721
  730SOL     OW 2003   0.266   0.601   2.782  0.1986 -0.5712  0.3280
  730SOL    HW1 2004   0.196   0.588   2.846 -0.5381  1.7924  0.0677
  730SOL    HW2 2005   0.223   0.640   2.706  2.1244  4.4484  1.4485
  731SOL     OW 2006   0.838   1.013   2.416  0.2516  0.0555  0.1851
  731SOL    HW1 2007   0.918   1.010   2.470 -0.0682 -1.6997  0.6178
  731SOL    HW2 2008   0.782   0.944   2.453 -0.7290  0.0558 -1.2488
  732SOL     OW 2009   2.237   0.250   0.104 -0.1081 -0.0976 -0.1880
  732SOL    HW1 2010   2.314   0.243   0.047 -0.6127  2.5428 -1.3656
  732SOL    HW2 2011   2.165   0.268   0.043 -1.0397  0.7838  1.1350
  733SOL     OW 2012   0.470   2.924   2.158 -0.3483  0.1364 -0.2251
  733SOL    HW1 2013   0.530   2.953   2.090  0.9978  0.4237  1.0266
  733SOL    HW2 2014   0.383   2.952   2.127  0.5328  3.0035 -0.4466
  734SOL     OW 2015   1.942   1.194   2.617  0.2559  0.0285  0.1543
  734SOL    HW1 2016   1.916   1.153   2.699  1.8521 -0.4623  0.4502
  734SOL    HW2 2017   2.008   1.259   2.642  0.5819  0.0549 -0.7142
  735SOL     OW 2018   1.689   2.970   1.891 -0.8496 -0.4304 -0.1855
  735SOL    HW1 2019   1.734   3.027   1.828  1.5201  0.2560  1.9927
  735SOL    HW2 2020   1.697   2.882   1.854  0.7090 -0.0838 -0.7329
  736SOL     OW 2021   1.974   0.268   1.617  0.5606  0.2420 -0.2113
  736SOL    HW1 2022   1.964   0.361   1.637 -1.5034  0.5158 -2.0411
  736SOL    HW2 2023   1.962   0.263   1.522  0.5592 -1.9041 -0.1445
  737SOL     OW 2024   0.237   0.206   3.111  0.2783 -0.1592 -0.1007
  737SOL    HW1 2025   0.323   0.190   3.150 -0.3692  0.2643  1.5786
  737SOL    HW2 2026   0.235   0.300   3.095  0.1508 -0.1784 -0.2031
  738SOL     OW 2027   2.747   0.855   1.805  0.1540  0.2765 -0.4392
  738SOL    HW1 2028   2.724   0.762   1.808  1.5002 -0.1816 -2.3516
  738SOL    HW2 2029   2.843   0.857   1.812  0.3044  1.3436 -1.9951
  739SOL     OW 2030   1.831   0.595   0.636 -0.0703 -0.4074  0.3235
  739SOL    HW1 2031   1.821   0.570   0.728  0.7242 -2.5438 -0.1247
  739SOL    HW2 2032   1.760   0.658   0.621 -2.6042 -2.8040  1.4507
  740SOL     OW 2033   0.406   0.908   1.571 -0.5845  0.5801  0.1061
  740SOL    HW1 2034   0.419   0.996   1.536 -0.0767  0.9766  1.2618
  740SOL    HW2 2035   0.385   0.855   1.494 -0.6859  1.6579 -0.6334
  741SOL     OW 2036   0.939   0.112   3.042  0.3115 -0.2550  0.1364
  741SOL    HW1 2037   0.966   0.047   2.977  0.4961 -0.6640  0.6187
  741SOL    HW2 2038   0.987   0.088   3.121 -0.6125 -0.3163  0.6865
  742SOL     OW 2039   1.624   2.746   0.259  0.2533  0.3676  0.2559
  742SOL    HW1 2040   1.679   2.748   0.181  0.5363  1.5760  0.4642
  742SOL    HW2 2041   1.569   2.668   0.248 -1.3867  1.7403 -2.3156
  743SOL     OW 2042   0.700   2.787   1.686 -0.5729 -0.1137  0.7276
  743SOL    HW1 2043   0.611   2.809   1.714 -0.8808 -0.0625 -0.2473
  743SOL    HW2 2044   0.714   2.840   1.607 -0.4503 -1.5832 -0.2953
  744SOL     OW 2045   0.733   2.843   0.606  0.2203  0.3261  0.4484
  744SOL    HW1 2046   0.638   2.849   0.616  0.3590  1.1667  1.4466
  744SOL    HW2 2047   0.765   2.824   0.694  0.9121 -1.1530 -0.0943
  745SOL     OW 2048   0.627   2.134   2.710  0.5162  0.0232  0.1292
  745SOL    HW1 2049   0.702   2.188   2.686  0.2683 -0.2145 -1.2665
  745SOL    HW2 2050   0.562   2.196   2.745  0.3969  0.5854 -1.0548
  746SOL     OW 2051   1.098   3.089   0.334  0.0581  0.6438 -0.4899
  746SOL    HW1 2052   1.061   3.047   0.257  0.1100  0.6357 -0.5104
  746SOL    HW2 2053   1.028   3.087   0.399 -0.1461  1.0743 -0.6911
  747SOL     OW 2054   1.433   2.848   1.887  0.7671 -0.5310 -0.1948
  747SOL    HW1 2055   1.442   2.770   1.942  0.3904 -0.0577  0.5564
  747SOL    HW2 2056   1.512   2.899   1.905  0.4068 -0.1366  0.3107
  748SOL     OW 2057   2.556   0.534   3.093 -0.4353  0.1217 -0.3090
  748SOL    HW1 2058   2.605   0.502   3.169 -1.9642 -1.6251 -0.0034
  748SOL    HW2 2059   2.624   0.567   3.033  0.8205  1.2969  1.6474
  749SOL     OW 2060   0.463   2.903   3.004 -0.0385 -0.2367  0.4969
  749SOL    HW1 2061   0.422   2.977   2.958 -0.9241  0.1476  1.8410
  749SOL    HW2 2062   0.450   2.829   2.945 -1.6949  0.1080  0.3746
  750SOL     OW 2063   2.787   0.626   1.199  0.3338  0.2497 -0.1642
  750SOL    HW1 2064   2.698   0.620   1.234  0.0691  0.8770 -0.7062
  750SOL    HW2 2065   2.830   0.545   1.228 -0.2302  0.2149  0.6031
  751SOL     OW 2066   0.247   0.887   2.099 -0.1353 -0.5404  0.0058
  751SOL    HW1 2067   0.211   0.813   2.051 -0.8897  0.7329 -1.4796
  751SOL    HW2 2068   0.335   0.899   2.065  0.4577 -1.4830  1.1359
  752SOL     OW 2069   3.045   1.326   0.321  0.1872 -0.4000 -0.2812
  752SOL    HW1 2070   2.992   1.400   0.350  0.6260  0.2481 -1.0859
  752SOL    HW2 2071   2.982   1.262   0.289 -0.2028 -0.4276  0.5231
  753SOL     OW 2072   2.568   2.625   0.935  0.2636 -0.5993 -0.1545
  753SOL    HW1 2073   2.579   2.720   0.946 -1.3420 -0.2960 -0.8190
  753SOL    HW2 2074   2.633   2.586   0.994  0.4314  0.9105  0.7145
  754SOL     OW 2075   1.828   1.203   1.662  0.5255  0.4567 -0.1149
  754SOL    HW1 2076   1.752   1.253   1.632  0.7920  0.3505 -0.9814
  754SOL    HW2 2077   1.789   1.126   1.706  0.1031  1.6724  1.7782
  755SOL     OW 2078   1.779   1.296   0.589 -0.0677  0.6398 -0.3323
  755SOL    HW1 2079   1.803   1.224   0.647 -0.9214  0.3874 -0.2745
  755SOL    HW2 2080   1.798   1.264   0.501  0.6313  0.7810 -0.2343
  756SOL     OW 2081   1.107   0.286   0.733  1.3634 -0.1760  0.5420
  756SOL    HW1 2082   1.141   0.286   0.643 -2.7364 -0.8908 -1.2330
  756SOL    HW2 2083   1.081   0.195   0.749 -1.3373  0.5952  0.9292
  757SOL     OW 2084   2.016   1.394   1.700 -0.1008 -0.1071 -0.1239
  757SOL    HW1 2085   1.949   1.458   1.722 -0.9732 -1.1378  0.3190
  757SOL    HW2 2086   1.972   1.309   1.707  0.5763 -0.7106 -2.2565
  758SOL     OW 2087   1.526   2.625   2.385  0.3169  0.1275 -0.1506
  758SOL    HW1 2088   1.609   2.666   2.410  0.0705  0.2573  0.4713
  758SOL    HW2 2089   1.541   2.531   2.397  0.1702  0.1945  0.5970
  759SOL     OW 2090   1.998   1.469   0.868  0.0583  0.1237 -0.1064
  759SOL    HW1 2091   1.919   1.456   0.920  0.0098 -2.3765 -0.6702
  759SOL    HW2 2092   2.038   1.382   0.862  2.5982  1.2166 -0.2783
  760SOL     OW 2093   1.125   2.049   2.211  0.1993 -0.1068 -0.4796
  760SOL    HW1 2094   1.153   2.120   2.154  0.2278 -0.1253 -0.4889
  760SOL    HW2 2095   1.125   2.087   2.299 -1.1464  0.3103 -0.6363
  761SOL     OW 2096   2.905   1.121   1.678 -0.8646 -0.2696 -0.2273
  761SOL    HW1 2097   2.919   1.191   1.614 -1.1436 -0.4359 -0.4734
  761SOL    HW2 2098   2.810   1.109   1.680 -0.9340  0.3608  0.8935
  762SOL     OW 2099   2.993   1.713   2.690 -0.3590 -0.5363  0.0828
  762SOL    HW1 2100   2.963   1.783   2.632  0.4694 -1.4234 -1.4774
  762SOL    HW2 2101   2.986   1.751   2.778 -1.8298  0.7824 -0.5550
  763SOL     OW 2102   1.372   1.793   2.450 -0.3791 -0.2097 -0.3281
  763SOL    HW1 2103   1.421   1.711   2.442 -2.0983 -1.3050 -0.0930
  763SOL    HW2 2104   1.373   1.831   2.362 -0.8220 -1.2497 -0.7957
  764SOL     OW 2105   2.607   1.018   0.277 -0.6018 -0.4657  0.7864
  764SOL    HW1 2106   2.582   0.934   0.314 -0.4287 -1.0330 -0.3525
  764SOL    HW2 2107   2.599   1.006   0.183  0.8198  0.3461  0.5452
  765SOL     OW 2108   1.241   1.771   1.650 -1.0667  0.1022 -0.2896
  765SOL    HW1 2109   1.230   1.689   1.698  0.3428 -0.0432 -0.1962
  765SOL    HW2 2110   1.193   1.836   1.702  0.4950 -0.0277  1.4180
  766SOL     OW 2111   2.400   2.561   2.047  0.4921  0.0084  1.0127
  766SOL    HW1 2112   2.384   2.499   1.976 -0.6234  0.2436  1.0366
  766SOL    HW2 2113   2.495   2.575   2.047  0.3136  3.1331 -3.1504
  767SOL     OW 2114   1.419   1.325   1.393  0.0556 -0.0975  0.0505
  767SOL    HW1 2115   1.367   1.391   1.347  0.6139 -0.7874 -1.6553
  767SOL    HW2 2116   1.468   1.281   1.323  1.1300 -1.0404  1.3555
  768SOL     OW 2117   0.468   2.303   2.861 -0.7407 -0.3380 -0.4511
  768SOL    HW1 2118   0.388   2.299   2.913  0.5357  2.0857  1.9458
  768SOL    HW2 2119   0.467   2.391   2.823  0.6438 -0.3576 -0.5782
  769SOL     OW 2120   1.471   0.150   2.284  0.0807  0.3065  0.0551
  769SOL    HW1 2121   1.557   0.114   2.262  0.1899  0.0062  0.9549
  769SOL    HW2 2122   1.490   0.226   2.339 -0.1900  1.0734 -0.8781
  770SOL     OW 2123   0.908   0.494   0.808 -0.1612 -0.3492 -0.4941
  770SOL    HW1 2124   0.864   0.488   0.723  0.6112 -0.3708 -0.9029
  770SOL    HW2 2125   0.974   0.425   0.806 -0.8833 -1.1006  0.5902
  771SOL     OW 2126   1.651   2.436   1.522 -0.2407 -0.1982 -0.1692
  771SOL    HW1 2127   1.633   2.383   1.599  0.2974  0.3299  0.3308
  771SOL    HW2 2128   1.577   2.496   1.516  0.4902  0.8700  0.9229
  772SOL     OW 2129   2.145   1.476   1.492  0.7032  0.3061  0.1730
  772SOL    HW1 2130   2.094   1.498   1.414  1.8830  0.3215 -0.6280
  772SOL    HW2 2131   2.094   1.409   1.537 -0.6226  1.2138  0.0864
  773SOL     OW 2132   1.576   2.440   0.976 -0.7786 -0.4011  0.3616
  773SOL    HW1 2133   1.634   2.516   0.977 -2.0777  0.6212  0.0467
  773SOL    HW2 2134   1.534   2.441   1.062 -0.3166 -1.1679  0.6076
  774SOL     OW 2135   1.408   2.915   2.559  0.2805  0.5944  0.7988
  774SOL    HW1 2136   1.417   2.897   2.653  0.0396 -0.5397  0.6111
  774SOL    HW2 2137   1.347   2.848   2.527 -0.9836  1.9912  0.1385
  775SOL     OW 2138   2.452   2.335   1.906  0.5584  0.3756  0.1614
  775SOL    HW1 2139   2.374   2.338   1.852  0.0896  0.2083  0.8135
  775SOL    HW2 2140   2.524   2.358   1.847 -0.0656  1.2124 -0.2845
  776SOL     OW 2141   2.260   0.430   0.332 -0.0760 -0.2016 -0.0085
  776SOL    HW1 2142   2.227   0.382   0.408 -1.2956  0.9900  0.2448
  776SOL    HW2 2143   2.226   0.381   0.257 -0.8710 -0.0320  0.2382
  777SOL     OW 2144   1.899   0.895   1.497  0.1897  0.3771 -0.3029
  777SOL    HW1 2145   1.857   0.891   1.582  0.5024  0.7726 -0.1255
  777SOL    HW2 2146   1.868   0.817   1.451 -0.1469  0.2748  0.0917
  778SOL     OW 2147   0.366   1.579   2.090 -0.3063 -0.7552  0.4690
  778SOL    HW1 2148   0.440   1.520   2.088 -0.6175 -1.2381  1.9544
  778SOL    HW2 2149   0.390   1.646   2.155  0.4412  1.3568 -1.8207
  779SOL     OW 2150   1.800   2.419   0.411  0.6962  0.1015 -0.0514
  779SOL    HW1 2151   1.834   2.506   0.433 -1.0465  0.4319  1.6535
  779SOL    HW2 2152   1.835   2.362   0.479  0.8343 -0.3032 -0.4565
  780SOL     OW 2153   2.245   0.152   1.651 -0.0135 -0.1759 -0.2329
  780SOL    HW1 2154   2.197   0.141   1.733 -1.5845 -2.2526 -1.3229
  780SOL    HW2 2155   2.178   0.151   1.583  1.2222  1.7582 -1.5725
  781SOL     OW 2156   1.639   2.456   2.992 -0.3856 -0.0513  0.2207
  781SOL    HW1 2157   1.709   2.419   2.939 -3.3567 -2.5165 -2.3502
  781SOL    HW2 2158   1.660   2.427   3.081  2.1828 -0.0051 -0.2739
  782SOL     OW 2159   2.251   1.957   2.139 -0.7828 -0.2604  0.3760
  782SOL    HW1 2160   2.195   1.901   2.193  1.1130 -0.6484  2.0806
  782SOL    HW2 2161   2.296   1.895   2.081 -1.3806 -0.0469 -0.3394
  783SOL     OW 2162   0.510   1.308   0.490 -1.1116  0.2600  0.4255
  783SOL    HW1 2163   0.456   1.322   0.412  0.9763 -1.5693 -1.5098
  783SOL    HW2 2164   0.491   1.218   0.516 -0.3497  0.2080  0.8192
  784SOL     OW 2165   0.262   3.000   0.915  0.0380  0.2223 -0.5189
  784SOL    HW1 2166   0.262   3.095   0.907  0.9399  0.3734  0.7976
  784SOL    HW2 2167   0.355   2.977   0.926 -0.3801 -0.4210  2.5785
  785SOL     OW 2168   1.005   1.607   0.182  0.6403  0.2466 -0.2817
  785SOL    HW1 2169   1.066   1.603   0.109  0.1030  3.7725 -1.1021
  785SOL    HW2 2170   0.931   1.658   0.150 -1.1263 -0.7845  1.8028
  786SOL     OW 2171   2.081   1.023   1.187 -0.5510 -0.3851 -0.3331
  786SOL    HW1 2172   2.011   0.958   1.182  0.5705 -1.7071  0.3810
  786SOL    HW2 2173   2.159   0.977   1.157  0.6006  0.0778  1.7191
  787SOL     OW 2174   0.041   2.120   2.308  0.0727  0.2705  0.4862
  787SOL    HW1 2175   0.118   2.140   2.256 -1.1795 -1.2446 -2.1386
  787SOL    HW2 2176   0.074   2.066   2.380  1.8735  2.5975  1.5268
  788SOL     OW 2177   2.260   2.221   2.226  0.7105 -0.4730  0.5042
  788SOL    HW1 2178   2.353   2.241   2.237  0.5165  0.8638 -0.1123
  788SOL    HW2 2179   2.259   2.132   2.192  1.7090 -0.8954  1.5129
  789SOL     OW 2180   2.060   0.782   0.526 -0.2985  0.2270  0.2324
  789SOL    HW1 2181   1.986   0.822   0.481 -0.7805 -0.2126  0.6376
  789SOL    HW2 2182   2.062   0.692   0.495  0.7537  0.5181 -0.6328
  790SOL     OW 2183   2.848   1.105   0.646  0.0966  0.1319  0.0946
  790SOL    HW1 2184   2.808   1.153   0.574  1.0222 -0.4133 -0.8085
  790SOL    HW2 2185   2.773   1.067   0.694 -0.5026 -0.8508 -1.5408
  791SOL     OW 2186   1.184   0.278   1.370 -0.1160  0.0729  0.1174
  791SOL    HW1 2187   1.130   0.266   1.449 -2.5610 -1.2220 -1.6246
  791SOL    HW2 2188   1.124   0.262   1.297  2.1082  0.9763 -2.0452
  792SOL     OW 2189   1.457   1.295   1.848 -0.3128  0.2755 -0.2907
  792SOL    HW1 2190   1.417   1.235   1.785  0.2599  0.5866 -0.9668
  792SOL    HW2 2191   1.549   1.270   1.851 -0.4239 -0.0706  0.8317
  793SOL     OW 2192   2.178   1.726   1.640 -0.0406 -0.2018 -0.0990
  793SOL    HW1 2193   2.164   1.642   1.595  0.1275 -0.4398  0.2908
  793SOL    HW2 2194   2.273   1.736   1.642 -0.0343 -0.3351  0.4590
  794SOL     OW 2195   1.782   1.051   1.277  0.4814  0.2842  0.2568
  794SOL    HW1 2196   1.827   0.989   1.335 -1.2611 -1.5121 -0.2052
  794SOL    HW2 2197   1.690   1.047   1.304  0.2119  2.2556 -0.2003
  795SOL     OW 2198   1.043   0.723   2.240 -0.1117  0.4588 -0.7581
  795SOL    HW1 2199   1.065   0.637   2.275 -0.5951 -0.1464 -1.8884
  795SOL    HW2 2200   1.012   0.706   2.151 -1.2896  1.6910 -0.6166
  796SOL     OW 2201   2.616   1.519   1.915 -0.2194 -0.4211 -0.0330
  796SOL    HW1 2202   2.677   1.483   1.980  0.2483 -1.1030 -0.8320
  796SOL    HW2 2203   2.670   1.540   1.839 -0.7571  0.3890 -0.2029
  797SOL     OW 2204   1.882   1.110   0.751  0.3298 -0.2090  0.6489
  797SOL    HW1 2205   1.962   1.157   0.774  0.8211 -1.3773  1.4248
  797SOL    HW2 2206   1.843   1.086   0.836  0.3216 -1.5414  0.2914
  798SOL     OW 2207   1.464   2.538   1.718 -0.0432 -0.0782  0.4772
  798SOL    HW1 2208   1.381   2.538   1.671  0.7383 -0.9350 -0.9792
  798SOL    HW2 2209   1.486   2.446   1.728  1.0921  0.1472  0.1768
  799SOL     OW 2210   2.264   1.506   1.840 -0.6062 -0.3822 -0.3781
  799SOL    HW1 2211   2.311   1.589   1.840  2.2493 -1.8823 -1.0727
  799SOL    HW2 2212   2.222   1.502   1.754 -0.8155  0.3447 -0.3124
  800SOL     OW 2213   0.568   1.951   2.537  0.5570 -0.1810 -0.5958
  800SOL    HW1 2214   0.662   1.940   2.524  0.4903 -0.0210 -1.2347
  800SOL    HW2 2215   0.562   2.010   2.612  0.9894  0.5006 -1.0721
  801SOL     OW 2216   0.407   2.044   2.341  0.0926  0.2840  0.0060
  801SOL    HW1 2217   0.449   2.130   2.333 -0.6773  0.8781  1.7255
  801SOL    HW2 2218   0.446   2.005   2.419  0.4114 -0.9339 -0.7466
  802SOL     OW 2219   0.166   3.041   0.309  0.3784 -0.5588 -0.2703
  802SOL    HW1 2220   0.222   3.018   0.384  2.5114  2.0922 -0.8750
  802SOL    HW2 2221   0.213   3.009   0.233  1.1837  1.6589 -0.7869
  803SOL     OW 2222   2.924   1.564   0.320  0.1154 -0.3299 -0.2557
  803SOL    HW1 2223   2.872   1.590   0.244 -0.2505 -0.2294  0.0283
  803SOL    HW2 2224   2.969   1.644   0.347  2.0051 -0.8242 -1.7086
  804SOL     OW 2225   1.749   0.516   2.729  0.4362 -0.2230 -0.3534
  804SOL    HW1 2226   1.838   0.486   2.715  0.6679  0.2082  0.1511
  804SOL    HW2 2227   1.722   0.474   2.811 -0.5460 -1.9396 -1.4911
  805SOL     OW 2228   1.206   2.842   0.537 -0.2546 -0.4423 -0.0641
  805SOL    HW1 2229   1.200   2.927   0.580 -0.0490 -0.9243  0.9508
  805SOL    HW2 2230   1.115   2.820   0.515 -0.3379 -0.0920 -0.0770
  806SOL     OW 2231   0.597   2.529   0.280  0.0597  0.1027  0.4327
  806SOL    HW1 2232   0.648   2.450   0.264 -0.8942 -0.4214 -0.1336
  806SOL    HW2 2233   0.660   2.591   0.316  1.1697 -0.4061 -0.5369
  807SOL     OW 2234   0.631   1.468   2.126  0.5945  0.5256  0.4681
  807SOL    HW1 2235   0.679   1.411   2.186 -0.2063  0.1625  0.7777
  807SOL    HW2 2236   0.691   1.540   2.109  1.6428 -0.4220  0.0405
  808SOL     OW 2237   0.111   2.094   1.548  0.0564 -0.3126  0.2196
  808SOL    HW1 2238   0.130   2.169   1.605 -2.9165  0.3202  0.5425
  808SOL    HW2 2239   0.123   2.128   1.460  1.8892 -0.4685  0.3640
  809SOL     OW 2240   0.835   1.483   1.843 -0.5305 -0.1738 -0.0883
  809SOL    HW1 2241   0.877   1.441   1.769 -0.4488 -0.7129  0.2548
  809SOL    HW2 2242   0.847   1.421   1.916  0.3413  0.8145  0.6473
  810SOL     OW 2243   1.555   2.654   0.634  0.1811  0.2477 -0.7230
  810SOL    HW1 2244   1.469   2.685   0.604  0.5328  2.4231  0.2622
  810SOL    HW2 2245   1.599   2.734   0.665  1.2199 -1.2731  2.0648
  811SOL     OW 2246   1.487   2.204   2.965 -0.0916 -0.1779  0.2779
  811SOL    HW1 2247   1.515   2.295   2.960  0.0215  0.3779  5.2453
  811SOL    HW2 2248   1.393   2.208   2.982 -0.1649 -0.9934  0.1351
  812SOL     OW 2249   1.800   2.587   2.066  0.4738 -0.3030  0.1317
  812SOL    HW1 2250   1.775   2.650   1.997 -0.1519 -1.0380 -0.3307
  812SOL    HW2 2251   1.845   2.517   2.019 -1.2493 -1.5339  0.2287
  813SOL     OW 2252   1.318   3.065   2.190 -0.2190 -0.2782 -0.5067
  813SOL    HW1 2253   1.396   3.011   2.207  0.1021  0.5790  0.9079
  813SOL    HW2 2254   1.342   3.152   2.221 -1.3203  0.2944 -1.2055
  814SOL     OW 2255   1.122   1.562   1.772  0.5183 -0.3579 -0.0026
  814SOL    HW1 2256   1.075   1.564   1.856  0.0086 -0.7450 -0.2711
  814SOL    HW2 2257   1.069   1.504   1.717  1.1651 -0.5701 -0.4054
  815SOL     OW 2258   0.428   1.011   0.505  0.4056 -0.0200 -0.1584
  815SOL    HW1 2259   0.420   0.915   0.500  0.9728 -0.2585  2.2872
  815SOL    HW2 2260   0.387   1.034   0.588  4.6028  1.1922  1.8381
  816SOL     OW 2261   0.654   0.862   2.604  0.1911 -0.3499  0.5148
  816SOL    HW1 2262   0.589   0.921   2.644  0.4115  0.9108 -0.8876
  816SOL    HW2 2263   0.708   0.834   2.678  0.2718  1.4892  1.2192
  817SOL     OW 2264   1.057   2.527   2.213  0.1873  0.1703 -0.1263
  817SOL    HW1 2265   1.087   2.588   2.147  1.6959  0.5990  0.9021
  817SOL    HW2 2266   1.137   2.497   2.257 -0.7851  0.9381  2.3723
  818SOL     OW 2267   0.120   2.119   1.048  0.4274 -0.3068  0.0027
  818SOL    HW1 2268   0.067   2.041   1.034 -1.6299  1.2539 -1.3404
  818SOL    HW2 2269   0.182   2.119   0.975  0.5618 -0.7560  0.1097
  819SOL     OW 2270   1.373   0.068   2.595  0.1996 -0.1380  0.1802
  819SOL    HW1 2271   1.345   0.078   2.504  3.9963  2.9837 -0.9112
  819SOL    HW2 2272   1.400  -0.024   2.602 -1.7098 -0.8716 -1.2557
  820SOL     OW 2273   0.868   1.352   1.250 -0.0543 -0.0335  0.0501
  820SOL    HW1 2274   0.899   1.424   1.305 -1.2735  0.2505  0.3803
  820SOL    HW2 2275   0.947   1.321   1.205  0.1313  3.2161 -2.1632
  821SOL     OW 2276   1.663   0.445   2.177 -0.3510  0.2228 -0.7268
  821SOL    HW1 2277   1.693   0.359   2.207 -1.5160  0.4161  1.1574
  821SOL    HW2 2278   1.700   0.507   2.240 -1.3635  0.8451 -0.7139
  822SOL     OW 2279   1.283   2.326   1.386  0.4547 -0.4544 -0.6832
  822SOL    HW1 2280   1.305   2.401   1.330  1.2581 -1.1437 -1.3081
  822SOL    HW2 2281   1.309   2.249   1.336  0.2906 -1.1349  0.2415
  823SOL     OW 2282   2.649   1.255   0.475  0.2143 -0.3451  0.1266
  823SOL    HW1 2283   2.622   1.217   0.391  0.7227 -0.7599  0.1466
  823SOL    HW2 2284   2.641   1.349   0.462  2.6937 -0.2366 -1.2488
  824SOL     OW 2285   1.582   2.954   0.472  0.7456 -0.2119  0.3610
  824SOL    HW1 2286   1.531   3.023   0.430  0.1329 -0.6310  0.3956
  824SOL    HW2 2287   1.583   2.883   0.408  0.6143 -0.4997  0.6741
  825SOL     OW 2288   2.265   1.026   0.897  0.6168  0.1399 -0.4950
  825SOL    HW1 2289   2.260   0.953   0.836 -1.9796 -1.1216  1.0667
  825SOL    HW2 2290   2.261   0.985   0.984 -1.8274  2.1151  0.4328
  826SOL     OW 2291   2.166   0.072   2.431  0.6637 -0.2784  0.2817
  826SOL    HW1 2292   2.253   0.081   2.392  0.5058  1.8758  0.3261
  826SOL    HW2 2293   2.111   0.131   2.380 -0.7154 -1.3284  0.4964
  827SOL     OW 2294   0.633   3.107   1.124 -0.0705 -0.2237 -0.0788
  827SOL    HW1 2295   0.594   3.195   1.122 -0.3639 -0.3455  0.2468
  827SOL    HW2 2296   0.598   3.067   1.203  1.4459  0.0000  0.7302
  828SOL     OW 2297   0.636   0.644   1.727 -0.1101  0.5091  0.1087
  828SOL    HW1 2298   0.653   0.680   1.641 -1.2988  1.3261  0.1926
  828SOL    HW2 2299   0.638   0.549   1.715  1.2332  0.5913 -0.4841
  829SOL     OW 2300   0.276   0.033   2.540 -0.6425  0.0875 -0.3523
  829SOL    HW1 2301   0.185   0.018   2.565 -0.5760  2.0372  1.2356
  829SOL    HW2 2302   0.277   0.121   2.502  0.6133  0.1919 -0.1284
  830SOL     OW 2303   1.876   1.472   2.827  0.2785 -0.2963  0.1832
  830SOL    HW1 2304   1.945   1.433   2.773 -0.5282 -2.4966  0.6461
  830SOL    HW2 2305   1.914   1.554   2.858  1.4537  0.1417 -2.1676
  831SOL     OW 2306   2.852   2.355   2.902  0.3401  0.1823 -0.4955
  831SOL    HW1 2307   2.834   2.261   2.897  1.2002  0.0420 -1.0330
  831SOL    HW2 2308   2.829   2.389   2.816  0.0204  0.4829 -0.3005
  832SOL     OW 2309   0.682   2.303   1.082  0.4129 -0.1578 -0.3882
  832SOL    HW1 2310   0.606   2.246   1.067  1.5685 -2.0130  0.4667
  832SOL    HW2 2311   0.705   2.337   0.995  0.1211 -1.5750 -1.0394
  833SOL     OW 2312   2.872   0.288   2.198  0.2417  0.2197  0.1940
  833SOL    HW1 2313   2.881   0.308   2.104 -1.4116  0.8521  0.1479
  833SOL    HW2 2314   2.962   0.284   2.229  0.8117  1.0786 -1.2067
  834SOL     OW 2315   0.705   0.317   0.231  0.1144  0.3067 -0.2396
  834SOL    HW1 2316   0.751   0.381   0.178  1.3951  0.2036  0.6984
  834SOL    HW2 2317   0.718   0.234   0.185  2.1931  0.0182  0.7380
  835SOL     OW 2318   0.181   1.319   0.453  0.2855 -0.6196 -0.2347
  835SOL    HW1 2319   0.249   1.312   0.385 -0.0919 -2.2851 -0.4881
  835SOL    HW2 2320   0.099   1.314   0.405  0.0107 -1.1773  0.2792
  836SOL     OW 2321   0.556   1.828   0.192  0.1707 -0.3996  0.7096
  836SOL    HW1 2322   0.642   1.829   0.149 -0.2357 -0.1766 -0.1171
  836SOL    HW2 2323   0.516   1.911   0.167 -0.3561 -0.5721  0.9601
  837SOL     OW 2324   0.054   2.535   0.663  0.5851 -0.1907 -0.2101
  837SOL    HW1 2325  -0.022   2.568   0.616 -0.3014 -2.0521 -0.1839
  837SOL    HW2 2326   0.036   2.556   0.755  1.2632  1.4628 -0.4228
  838SOL     OW 2327   2.642   2.940   0.829 -0.0032  0.3940 -0.4602
  838SOL    HW1 2328   2.693   3.007   0.874  1.4707  0.2194 -1.7820
  838SOL    HW2 2329   2.551   2.970   0.837  0.3009  0.9361  1.5819
  839SOL     OW 2330   3.025   2.850   0.320 -0.5286 -0.2953 -0.2338
  839SOL    HW1 2331   3.082   2.916   0.359  0.0210 -1.2591  0.6733
  839SOL    HW2 2332   3.023   2.870   0.227  2.0572 -0.7541 -0.4459
  840SOL     OW 2333   2.291   1.403   2.458  0.1228 -0.6454  0.6519
  840SOL    HW1 2334   2.253   1.398   2.371  1.7630 -1.0103 -0.0818
  840SOL    HW2 2335   2.371   1.352   2.452  1.9683  1.9372  1.4497
  841SOL     OW 2336   1.533   0.013   0.891  0.9310 -0.4424 -0.5927
  841SOL    HW1 2337   1.509   0.106   0.883 -0.0640 -0.5841  0.4386
  841SOL    HW2 2338   1.472  -0.021   0.957  1.1871 -1.8644 -1.0670
  842SOL     OW 2339   0.134   1.441   2.153 -0.2844 -0.0836 -0.5211
  842SOL    HW1 2340   0.211   1.491   2.126  0.0089 -0.5130 -0.4829
  842SOL    HW2 2341   0.090   1.497   2.217 -0.4991  0.5545 -1.2146
  843SOL     OW 2342   1.712   0.392   2.981  0.2887  0.7342 -0.2570
  843SOL    HW1 2343   1.757   0.314   3.016 -0.2293  0.5747  0.0740
  843SOL    HW2 2344   1.691   0.443   3.059  0.0770  0.9083 -0.4302
  844SOL     OW 2345   2.421   0.646   1.090  0.3352 -0.0641 -0.2478
  844SOL    HW1 2346   2.466   0.561   1.098 -1.9192 -1.2527  0.6595
  844SOL    HW2 2347   2.457   0.684   1.010  2.0046 -1.4883 -0.2558
  845SOL     OW 2348   0.850   0.311   1.575  0.1605 -0.5208 -0.2397
  845SOL    HW1 2349   0.781   0.320   1.640  1.5867  0.1059  1.2529
  845SOL    HW2 2350   0.805   0.279   1.496 -2.0198  1.0476  0.2786
  846SOL     OW 2351   0.907   0.701   1.223  0.0945 -0.3073 -0.2263
  846SOL    HW1 2352   0.927   0.703   1.316 -0.5238 -0.5109 -0.0865
  846SOL    HW2 2353   0.903   0.608   1.201 -0.6486 -0.2759 -0.2564
  847SOL     OW 2354   1.229   2.028   2.863 -0.4305  0.0293  0.2962
  847SOL    HW1 2355   1.151   2.043   2.810 -0.8204 -0.8647  0.6135
  847SOL    HW2 2356   1.205   2.059   2.951 -1.1938 -2.2030  0.9246
  848SOL     OW 2357   2.519   2.247   1.548  0.1025  0.8554  0.3292
  848SOL    HW1 2358   2.595   2.269   1.494 -0.5478  0.3479 -0.8547
  848SOL    HW2 2359   2.470   2.329   1.555  0.3554  0.9995  0.4119
  849SOL     OW 2360   2.965   2.417   1.322 -0.4476 -0.2723 -0.0606
  849SOL    HW1 2361   2.997   2.506   1.307 -1.0972 -0.1145 -0.5392
  849SOL    HW2 2362   2.992   2.397   1.412  2.7133 -0.9015 -1.0474
  850SOL     OW 2363   1.544   0.147   1.580 -0.4182 -0.1652  0.2657
  850SOL    HW1 2364   1.473   0.162   1.642 -1.8401 -1.2033 -1.0316
  850SOL    HW2 2365   1.507   0.171   1.495  1.5159  1.3635 -0.2076
  851SOL     OW 2366   2.840   2.725   0.838 -0.0397  0.0963 -0.4578
  851SOL    HW1 2367   2.898   2.756   0.908  0.2849 -1.7264  0.1266
  851SOL    HW2 2368   2.776   2.796   0.827  0.6229  0.9379  0.8231
  852SOL     OW 2369   0.524   1.483   2.525 -0.4414 -0.0472  0.1787
  852SOL    HW1 2370   0.442   1.454   2.485  0.0977 -2.5956  0.6874
  852SOL    HW2 2371   0.552   1.407   2.577  1.5128  1.2768  1.1657
  853SOL     OW 2372   1.211   2.146   0.004 -0.0371  0.2794  0.3449
  853SOL    HW1 2373   1.233   2.123   0.095 -0.0980 -0.2022  0.2436
  853SOL    HW2 2374   1.161   2.227   0.011  0.9829  0.9071  0.6519
  854SOL     OW 2375   1.312   1.012   1.264  0.4110  0.1779 -0.2086
  854SOL    HW1 2376   1.277   0.923   1.263 -0.7406  0.5967 -1.6605
  854SOL    HW2 2377   1.241   1.064   1.302  1.1506  0.4725  0.8080
  855SOL     OW 2378   1.314   2.936   0.973 -0.0930  0.1903  0.1694
  855SOL    HW1 2379   1.402   2.899   0.968 -0.4727 -0.7281  0.2149
  855SOL    HW2 2380   1.285   2.917   1.063  0.3821  2.1776  0.8006
  856SOL     OW 2381   1.067   2.970   0.046  0.3352  0.2240 -0.4117
  856SOL    HW1 2382   1.115   2.892   0.074  0.3048  0.2847 -0.1871
  856SOL    HW2 2383   1.032   2.948  -0.040 -0.7408 -0.4887  0.1766
  857SOL     OW 2384   1.541   0.997   0.419  0.3266  0.4493  0.4562
  857SOL    HW1 2385   1.524   1.020   0.511  0.1769 -1.7735  1.0646
  857SOL    HW2 2386   1.636   1.003   0.410  0.1921  3.1702 -0.0566
  858SOL     OW 2387   1.052   2.585   0.441 -0.1854  0.0960  0.4169
  858SOL    HW1 2388   1.026   2.526   0.370 -1.6530  3.0993 -1.7763
  858SOL    HW2 2389   1.148   2.588   0.435 -0.0630 -1.9903  0.6214
  859SOL     OW 2390   0.522   2.826   2.714 -0.0539  0.5030  0.4470
  859SOL    HW1 2391   0.446   2.808   2.658 -0.1696  0.1298  0.7199
  859SOL    HW2 2392   0.579   2.879   2.659  1.2412 -2.3166 -1.1667
  860SOL     OW 2393   1.564   0.660   2.578 -0.6397  0.5116 -0.2951
  860SOL    HW1 2394   1.564   0.594   2.509 -0.2686  1.0658 -0.8448
  860SOL    HW2 2395   1.642   0.640   2.630  0.5197  1.5769 -1.5421
  861SOL     OW 2396   2.121   1.343   2.240 -0.1977 -0.4680 -0.1322
  861SOL    HW1 2397   2.062   1.336   2.316 -0.3529 -0.8674 -0.2888
  861SOL    HW2 2398   2.082   1.411   2.186 -1.7947 -2.2684 -1.3543
  862SOL     OW 2399   2.169   0.963   1.450 -0.1410 -0.2009  0.2867
  862SOL    HW1 2400   2.172   1.038   1.392  0.5892 -1.4056 -1.3263
  862SOL    HW2 2401   2.077   0.935   1.449 -0.6092  1.1709  1.6416
  863SOL     OW 2402   0.853   1.001   1.651  0.0946  0.0516  0.2364
  863SOL    HW1 2403   0.804   1.056   1.713 -1.6760 -2.1227  0.8690
  863SOL    HW2 2404   0.915   0.953   1.706  0.9459  0.6342 -0.1857
  864SOL     OW 2405   1.616   1.005   2.082 -0.3411 -0.1297  0.0376
  864SOL    HW1 2406   1.636   1.085   2.129  1.8951  0.6340 -1.9768
  864SOL    HW2 2407   1.691   0.948   2.099 -1.0591 -1.1017  0.0149
  865SOL     OW 2408   1.514   2.881   1.256 -0.1190  0.2225 -0.5590
  865SOL    HW1 2409   1.496   2.843   1.170  0.6102  0.3430 -0.7719
  865SOL    HW2 2410   1.519   2.805   1.315  1.5053 -0.0617 -1.0117
  866SOL     OW 2411   1.867   2.240   0.943 -0.3942  0.0538  0.3836
  866SOL    HW1 2412   1.891   2.179   0.873  3.1896  2.2571 -0.5364
  866SOL    HW2 2413   1.881   2.190   1.024  0.1111 -1.0944 -0.3826
  867SOL     OW 2414   1.516   2.679   1.473  0.4013  0.3198 -0.3714
  867SOL    HW1 2415   1.604   2.701   1.504 -0.3272  1.0743  1.2315
  867SOL    HW2 2416   1.457   2.717   1.538 -1.1060 -0.7347 -1.0700
  868SOL     OW 2417   0.133   2.261   1.860 -0.6994 -0.8042 -0.2750
  868SOL    HW1 2418   0.197   2.270   1.930 -2.4398 -0.6638  1.3848
  868SOL    HW2 2419   0.183   2.270   1.780  1.2509 -0.1414  0.9602
  869SOL     OW 2420   2.357   0.053   2.644 -0.5041  0.2542  0.0687
  869SOL    HW1 2421   2.300   0.073   2.570 -2.0940 -0.1657  1.1274
  869SOL    HW2 2422   2.393  -0.033   2.623 -0.5284  0.3669 -0.4589
  870SOL     OW 2423   0.856   1.775   1.828 -0.5922 -1.1562  0.3614
  870SOL    HW1 2424   0.876   1.682   1.838  0.0572 -1.2306 -1.3202
  870SOL    HW2 2425   0.917   1.819   1.888  0.0711 -1.7433  0.1348
  871SOL     OW 2426   1.459   0.201   1.319  0.4831 -0.3035  0.0469
  871SOL    HW1 2427   1.480   0.277   1.266  1.9887  0.0202  1.0480
  871SOL    HW2 2428   1.366   0.212   1.341  1.0154  2.1022  1.4324
  872SOL     OW 2429   0.394   2.262   0.355 -0.1761  0.1868 -0.1641
  872SOL    HW1 2430   0.464   2.327   0.360  0.5578 -0.6165  0.3798
  872SOL    HW2 2431   0.316   2.312   0.330  0.6607  1.0404 -1.1399
  873SOL     OW 2432   1.321   1.559   1.242  0.2141  0.4507 -0.0715
  873SOL    HW1 2433   1.329   1.625   1.311 -1.2114  0.8131 -0.2201
  873SOL    HW2 2434   1.257   1.597   1.181 -0.9403 -1.2096  0.0439
  874SOL     OW 2435   2.963   0.049   1.795 -0.1981  0.1867  0.0346
  874SOL    HW1 2436   2.957  -0.045   1.811 -0.9083  0.2582  0.2049
  874SOL    HW2 2437   3.057   0.066   1.790 -0.0177 -0.3106  1.3160
  875SOL     OW 2438   1.588   1.607   2.366 -0.5787 -0.5867  0.2091
  875SOL    HW1 2439   1.559   1.536   2.309  1.4320 -0.2075 -1.3873
  875SOL    HW2 2440   1.629   1.564   2.440 -1.4424 -1.0732  0.4195
  876SOL     OW 2441   1.203   2.207   0.506 -0.2025  0.6027  0.0702
  876SOL    HW1 2442   1.273   2.229   0.444 -0.2111  0.0415 -0.1492
  876SOL    HW2 2443   1.249   2.191   0.588 -0.0156 -0.2085 -0.1824
  877SOL     OW 2444   2.775   1.996   0.091 -0.2223 -0.2175  0.5696
  877SOL    HW1 2445   2.737   1.937   0.025 -0.9521  0.2031  0.6008
  877SOL    HW2 2446   2.709   2.000   0.161  1.0413 -1.5890  1.9040
  878SOL     OW 2447   0.709   2.491   1.607  0.1910  0.0514 -0.7204
  878SOL    HW1 2448   0.710   2.465   1.515  2.5628  1.6646 -1.2357
  878SOL    HW2 2449   0.722   2.586   1.606 -4.0280  0.8857  1.2265
  879SOL     OW 2450   1.510   2.889   2.307  0.5391  0.1423 -0.2957
  879SOL    HW1 2451   1.507   2.794   2.307  0.2904  0.1397 -0.9234
  879SOL    HW2 2452   1.467   2.915   2.388  0.9176 -0.2839  0.0444
  880SOL     OW 2453   1.274   2.820   0.248 -0.2482  0.2726 -0.0695
  880SOL    HW1 2454   1.254   2.859   0.333 -3.3146 -1.2530  0.0346
  880SOL    HW2 2455   1.326   2.742   0.269 -0.3114  0.3318  0.3151
  881SOL     OW 2456   1.626   0.327   2.455  0.1386 -0.3209  0.3358
  881SOL    HW1 2457   1.634   0.267   2.529  1.1662  1.4447  1.7267
  881SOL    HW2 2458   1.712   0.370   2.450 -0.6300  1.1885 -0.4502
  882SOL     OW 2459   1.670   1.344   2.998 -0.1768  0.2595 -0.6429
  882SOL    HW1 2460   1.754   1.384   2.975  1.6885 -2.8499  0.2324
  882SOL    HW2 2461   1.623   1.338   2.914  0.2212  2.4042 -1.0808
  883SOL     OW 2462   0.123   0.705   0.400 -0.1786  0.4858  0.0823
  883SOL    HW1 2463   0.137   0.637   0.334  3.1019  0.0200  1.0707
  883SOL    HW2 2464   0.090   0.659   0.476  0.7353  0.1711  0.3048
  884SOL     OW 2465   0.340   0.512   1.294 -0.6654  0.7708  0.8759
  884SOL    HW1 2466   0.246   0.527   1.305 -0.3741  1.7697  2.1989
  884SOL    HW2 2467   0.369   0.475   1.378  0.0632  0.0950  0.3466
  885SOL     OW 2468   2.689   2.516   2.332 -0.0026 -0.2600 -0.1332
  885SOL    HW1 2469   2.620   2.574   2.364 -0.2893 -0.7828  0.2128
  885SOL    HW2 2470   2.695   2.534   2.238 -1.4005 -1.0316 -0.3866
  886SOL     OW 2471   0.346   1.689   0.094  0.3633 -0.0299 -0.5852
  886SOL    HW1 2472   0.292   1.699   0.172  0.3933 -1.8587 -0.2912
  886SOL    HW2 2473   0.426   1.739   0.114  0.4912 -0.7106  0.6819
  887SOL     OW 2474   1.373   1.558   2.842  0.3652 -0.3542 -0.2917
  887SOL    HW1 2475   1.341   1.616   2.911 -1.2393 -0.8112 -0.6177
  887SOL    HW2 2476   1.294   1.516   2.807  1.1048  0.0389 -2.5653
  888SOL     OW 2477   2.909   0.484   2.496 -0.1002  0.3403  0.1600
  888SOL    HW1 2478   2.909   0.502   2.402 -3.8036 -0.0622 -0.0704
  888SOL    HW2 2479   2.960   0.404   2.505 -1.3132 -0.7441 -1.8649
  889SOL     OW 2480   0.274   2.736   0.353  0.6113  0.3198  0.4944
  889SOL    HW1 2481   0.246   2.645   0.352  1.4174  0.0464 -1.5145
  889SOL    HW2 2482   0.223   2.776   0.424 -0.5397 -1.4345  0.7147
  890SOL     OW 2483   1.261   1.224   2.093  0.0317 -0.1634 -0.2827
  890SOL    HW1 2484   1.291   1.204   2.005  1.1700 -1.5036  0.3741
  890SOL    HW2 2485   1.193   1.159   2.111  1.1861 -1.1679  0.5326
  891SOL     OW 2486   2.231   0.127   2.112 -0.4339  0.2798  0.3598
  891SOL    HW1 2487   2.266   0.193   2.172 -1.2349  0.6328  0.4528
  891SOL    HW2 2488   2.271   0.045   2.141 -0.3069  0.5500  0.9715
  892SOL     OW 2489   2.058   2.555   0.406  0.7742 -0.1639 -0.0203
  892SOL    HW1 2490   2.101   2.469   0.408  2.0842  0.4691 -0.0106
  892SOL    HW2 2491   2.072   2.591   0.494 -1.7842 -0.8604  0.7509
  893SOL     OW 2492   2.139   2.258   2.491 -0.1148 -0.4671  0.6340
  893SOL    HW1 2493   2.045   2.272   2.493 -0.2603 -1.4237  0.7426
  893SOL    HW2 2494   2.160   2.248   2.398  0.0869  0.9900  0.4957
  894SOL     OW 2495   2.707   0.810   0.504 -0.4166 -0.5892 -0.5153
  894SOL    HW1 2496   2.689   0.900   0.531  0.5632 -0.6919  0.5745
  894SOL    HW2 2497   2.798   0.812   0.472 -0.1929 -1.2919  0.0423
  895SOL     OW 2498   2.598   1.619   0.311  0.0750  0.8465 -0.0786
  895SOL    HW1 2499   2.675   1.590   0.261 -0.6412  0.2384 -0.8535
  895SOL    HW2 2500   2.560   1.689   0.258 -2.0440 -1.3679 -1.6916
  896SOL     OW 2501   1.444   2.044   2.099 -0.1053  0.0958  0.2726
  896SOL    HW1 2502   1.393   2.125   2.099 -1.5615 -0.7271  3.0288
  896SOL    HW2 2503   1.476   2.035   2.188  0.7137 -1.9731 -0.1641
  897SOL     OW 2504   0.024   2.502   2.762 -0.3947  0.2006 -0.1602
  897SOL    HW1 2505  -0.010   2.414   2.781 -0.7220  0.4003  0.1922
  897SOL    HW2 2506   0.028   2.545   2.847  1.0502  0.0882 -0.1467
  898SOL     OW 2507   0.613   2.250   0.536 -0.1759  0.0062  0.2668
  898SOL    HW1 2508   0.587   2.194   0.610 -1.0171  0.2393  0.1556
  898SOL    HW2 2509   0.534   2.300   0.515 -0.2535 -0.7324 -1.4022
  899SOL     OW 2510   2.253   0.296   0.575  0.2646 -0.1515 -0.1723
  899SOL    HW1 2511   2.328   0.241   0.596  1.3336  1.7935  1.4966
  899SOL    HW2 2512   2.193   0.286   0.649  0.3676  0.7377  0.0395
  900SOL     OW 2513   0.236   2.374   0.080 -0.1523  0.1439  0.1912
  900SOL    HW1 2514   0.194   2.408   0.002 -2.2802  2.3477  2.1390
  900SOL    HW2 2515   0.298   2.442   0.106 -0.3137 -0.0171  1.0365
  901SOL     OW 2516   0.903   2.710   2.358 -0.1042 -0.0933  0.2683
  901SOL    HW1 2517   0.904   2.783   2.296 -1.6081  0.3573  0.7334
  901SOL    HW2 2518   0.948   2.639   2.312 -3.1488 -0.5466 -2.3686
  902SOL     OW 2519   1.991   0.963   0.304  0.0676  0.7419 -0.0658
  902SOL    HW1 2520   1.971   0.987   0.214  0.3265  1.0332 -0.0491
  902SOL    HW2 2521   2.049   1.033   0.335 -1.9447  1.9692  1.1250
  903SOL     OW 2522   2.332   0.007   2.956  0.2845  0.0619 -0.7732
  903SOL    HW1 2523   2.380   0.032   2.877  0.8326 -0.8863 -0.7545
  903SOL    HW2 2524   2.370   0.061   3.025 -0.0252  0.7160 -1.1128
  904SOL     OW 2525   2.725   3.052   2.465 -0.3892 -0.4296 -0.0527
  904SOL    HW1 2526   2.815   3.019   2.463  0.1235  0.9621 -1.2553
  904SOL    HW2 2527   2.713   3.097   2.382 -1.9467  0.1062  0.4172
  905SOL     OW 2528   1.614   2.215   1.289  0.0499 -0.2142 -0.0242
  905SOL    HW1 2529   1.524   2.210   1.255  0.0666  1.6202 -0.4356
  905SOL    HW2 2530   1.665   2.163   1.227 -0.5531 -0.2549 -0.5022
  906SOL     OW 2531   0.715   1.134   0.632  0.9999  0.2537 -0.0250
  906SOL    HW1 2532   0.668   1.177   0.704  0.3088 -1.4998  0.6258
  906SOL    HW2 2533   0.664   1.055   0.613  1.6799  0.1953 -1.8391
  907SOL     OW 2534   0.925   2.944   2.867  0.1813  0.0744 -0.3368
  907SOL    HW1 2535   0.836   2.973   2.847  0.4285  0.8857 -0.2939
  907SOL    HW2 2536   0.969   2.944   2.782  0.7772  1.9429 -0.0678
  908SOL     OW 2537   0.146   2.893   0.563  0.2214 -0.1119 -0.1872
  908SOL    HW1 2538   0.191   2.909   0.646 -0.1044 -2.4984  0.5394
  908SOL    HW2 2539   0.053   2.897   0.586  0.1228 -1.8911 -0.1183
  909SOL     OW 2540   0.392   0.560   0.966  0.5601 -0.1201  0.2295
  909SOL    HW1 2541   0.487   0.552   0.967  0.5923 -0.2534 -1.3008
  909SOL    HW2 2542   0.374   0.643   1.010  1.3056 -0.5833  1.4407
  910SOL     OW 2543   3.004   0.885   2.586 -0.2268  0.1930 -0.0465
  910SOL    HW1 2544   3.057   0.956   2.623 -1.0286  0.1742  1.1869
  910SOL    HW2 2545   2.918   0.895   2.627 -0.7108 -0.7574 -0.7891
  911SOL     OW 2546   2.954   0.468   0.474  0.7377  0.5410  0.9076
  911SOL    HW1 2547   2.877   0.442   0.525  2.0367 -1.3859  2.0227
  911SOL    HW2 2548   2.920   0.529   0.409 -1.2662  1.8167  3.0181
  912SOL     OW 2549   0.694   2.910   0.032 -0.4468 -0.2189  0.2032
  912SOL    HW1 2550   0.711   3.002   0.011  0.2972 -0.5646 -0.8094
  912SOL    HW2 2551   0.608   2.892  -0.008  0.8085 -0.7827 -2.4839
  913SOL     OW 2552   1.300   1.821   0.154 -0.1476  0.0766 -0.1933
  913SOL    HW1 2553   1.245   1.872   0.212 -0.0513 -0.0487  0.0106
  913SOL    HW2 2554   1.388   1.830   0.190 -0.2557 -0.9527  0.3719
  914SOL     OW 2555   2.530   0.815   2.603  0.2061 -0.1713 -0.3584
  914SOL    HW1 2556   2.593   0.873   2.561  0.1187 -1.4264 -2.4011
  914SOL    HW2 2557   2.581   0.741   2.633  0.0661  0.0759  0.5008
  915SOL     OW 2558   0.077   1.566   0.982  0.0644  0.2060 -0.1085
  915SOL    HW1 2559  -0.009   1.603   0.960 -0.0008  0.2829  0.2728
  915SOL    HW2 2560   0.087   1.493   0.921  0.2732  0.9559 -1.0081
  916SOL     OW 2561   0.075   0.811   1.154 -0.6583  0.7673 -0.0758
  916SOL    HW1 2562   0.036   0.883   1.204 -0.4280 -0.4857  2.0396
  916SOL    HW2 2563   0.160   0.846   1.125  0.0029  1.0098  1.9756
  917SOL     OW 2564   0.655   1.904   0.868  0.4505 -0.2064  1.0047
  917SOL    HW1 2565   0.729   1.916   0.928  0.9961 -1.6073  0.6454
  917SOL    HW2 2566   0.596   1.845   0.915  1.0488 -1.6007  0.0523
  918SOL     OW 2567   0.872   2.524   0.694  0.3153  0.6796 -0.5471
  918SOL    HW1 2568   0.885   2.436   0.657 -1.5417  0.0210  0.2455
  918SOL    HW2 2569   0.932   2.580   0.644  0.8731 -0.8679 -1.7030
  919SOL     OW 2570   1.008   3.054   1.832  0.2172  0.0362 -0.0735
  919SOL    HW1 2571   0.919   3.048   1.865  0.0101  0.3511 -0.5613
  919SOL    HW2 2572   1.056   3.100   1.901 -0.4509  1.6543 -0.6543
  920SOL     OW 2573   0.322   2.309   1.673 -0.3784  0.0188 -0.0398
  920SOL    HW1 2574   0.383   2.357   1.730 -0.9245  1.1699 -0.3851
  920SOL    HW2 2575   0.366   2.307   1.588 -0.5910  0.4102 -0.1632
  921SOL     OW 2576   1.814   2.749   0.042  0.2186 -0.7219  0.6138
  921SOL    HW1 2577   1.780   2.728  -0.045  1.7378 -0.1671 -0.1633
  921SOL    HW2 2578   1.870   2.826   0.028 -0.4368  0.1207  2.3066
  922SOL     OW 2579   0.071   1.848   0.739  0.2436  0.0767 -0.2273
  922SOL    HW1 2580   0.000   1.784   0.731  0.2721 -0.1209  1.0177
  922SOL    HW2 2581   0.029   1.932   0.722 -0.2696 -0.0519  0.3812
  923SOL     OW 2582   2.577   1.884   2.258 -0.5517  0.5904 -0.5360
  923SOL    HW1 2583   2.508   1.870   2.193 -1.2747  0.5964  0.2150
  923SOL    HW2 2584   2.539   1.854   2.340  0.6305 -0.1766 -0.2347
  924SOL     OW 2585   0.729   1.508   0.376 -0.6278 -0.4264 -0.1017
  924SOL    HW1 2586   0.656   1.463   0.417 -0.1349 -1.2426 -0.0814
  924SOL    HW2 2587   0.754   1.451   0.303  0.0993 -0.2574  0.0065
  925SOL     OW 2588   0.413   0.203   1.650  0.0597  0.0509  0.9957
  925SOL    HW1 2589   0.486   0.166   1.600  1.2006  0.6738  2.1560
  925SOL    HW2 2590   0.417   0.159   1.735  0.7799  1.9457  2.0203
  926SOL     OW 2591   1.107   1.093   1.882  0.1017 -0.2602 -0.2841
  926SOL    HW1 2592   1.042   1.069   1.948  1.5625 -2.0748  0.5913
  926SOL    HW2 2593   1.079   1.179   1.850 -2.2084 -0.5983  0.6615
  927SOL     OW 2594   0.488   0.869   2.376  0.2747  0.0782  0.4266
  927SOL    HW1 2595   0.533   0.862   2.461  0.9112 -1.6812 -0.0386
  927SOL    HW2 2596   0.523   0.798   2.324 -0.4023  0.9086 -1.2157
  928SOL     OW 2597   2.090   0.712   2.348 -0.3451  0.4490  0.2794
  928SOL    HW1 2598   2.035   0.789   2.357 -0.5501  0.1845  1.4390
  928SOL    HW2 2599   2.160   0.725   2.413  0.1978  0.1518 -0.2397
  929SOL     OW 2600   2.242   3.059   1.457  0.1120 -0.4253  0.2921
  929SOL    HW1 2601   2.300   3.007   1.402  0.1016 -0.2226  0.0882
  929SOL    HW2 2602   2.154   3.033   1.430  0.1045 -0.0696 -0.0359
  930SOL     OW 2603   3.006   1.828   2.342  0.4047 -0.2773  0.0858
  930SOL    HW1 2604   3.099   1.835   2.321  0.2957 -0.8976 -0.6466
  930SOL    HW2 2605   2.974   1.919   2.338  1.4012  0.2516  2.5237
  931SOL     OW 2606   3.087   1.009   1.294  0.3885 -0.2151  0.2479
  931SOL    HW1 2607   3.113   1.009   1.386 -1.3794  1.8709  0.8178
  931SOL    HW2 2608   2.993   1.026   1.295  0.5835  1.4828 -1.9700
  932SOL     OW 2609   1.292   1.279   0.458  0.5504  0.6801 -0.2741
  932SOL    HW1 2610   1.350   1.203   0.463 -1.5597 -0.9606  1.2332
  932SOL    HW2 2611   1.229   1.256   0.389 -0.7356  0.5184  0.9054
  933SOL     OW 2612   2.015   1.033   2.192  0.3006  0.0458 -0.8217
  933SOL    HW1 2613   2.017   1.054   2.286 -0.3573 -0.2717 -0.7360
  933SOL    HW2 2614   2.064   1.104   2.151 -0.7167  1.0177 -0.3922
  934SOL     OW 2615   1.349   1.262   2.392 -0.2215 -0.4779  0.0059
  934SOL    HW1 2616   1.322   1.260   2.300 -1.1128  0.1241  0.2456
  934SOL    HW2 2617   1.309   1.342   2.427  0.4612 -0.4804  0.8126
  935SOL     OW 2618   1.444   2.089   1.494 -0.5263 -0.4980 -0.9705
  935SOL    HW1 2619   1.353   2.060   1.496 -0.8350  0.3558 -1.6666
  935SOL    HW2 2620   1.454   2.144   1.572 -0.5232 -0.8229 -0.7420
  936SOL     OW 2621   1.532   1.023   1.416 -0.2993 -0.1827 -0.4049
  936SOL    HW1 2622   1.495   1.071   1.490 -0.6630  1.9915 -1.8877
  936SOL    HW2 2623   1.465   1.027   1.348  0.8413 -0.1759 -1.5837
  937SOL     OW 2624   2.289   0.346   2.836 -0.4376  0.0356  0.2223
  937SOL    HW1 2625   2.343   0.420   2.809 -2.0646  0.2647 -2.8707
  937SOL    HW2 2626   2.336   0.269   2.803  0.9094 -0.3708  2.8414
  938SOL     OW 2627   2.890   1.206   1.980 -0.1153 -0.0021 -0.1562
  938SOL    HW1 2628   2.834   1.254   1.918  0.5482 -0.4315 -1.0912
  938SOL    HW2 2629   2.953   1.160   1.926  1.6710  1.0803  0.9040
  939SOL     OW 2630   0.513   2.418   1.875  0.4734 -1.0040 -0.8650
  939SOL    HW1 2631   0.592   2.461   1.907  0.2359 -0.8912 -0.4235
  939SOL    HW2 2632   0.519   2.328   1.906 -1.5603 -0.0524  2.9421
  940SOL     OW 2633   1.276   2.015   0.691 -0.0265 -0.3044 -0.0087
  940SOL    HW1 2634   1.186   1.986   0.686 -0.1997  0.4165 -1.8541
  940SOL    HW2 2635   1.328   1.939   0.664  0.0056 -0.9459  1.7483
  941SOL     OW 2636   0.489   2.558   0.606 -0.3027  0.4625  0.0740
  941SOL    HW1 2637   0.453   2.590   0.523  0.1799 -0.7048 -0.6066
  941SOL    HW2 2638   0.501   2.637   0.659 -0.1071  1.2914 -1.1675
  942SOL     OW 2639   0.341   0.565   2.384  0.3709 -0.3219  0.4940
  942SOL    HW1 2640   0.292   0.646   2.369 -0.6807 -1.3386 -2.1042
  942SOL    HW2 2641   0.432   0.592   2.387 -0.0365  1.0947  1.0066
  943SOL     OW 2642   1.734   0.446   1.394  0.1214 -0.4846  0.0519
  943SOL    HW1 2643   1.674   0.460   1.468 -0.4453  2.9539 -0.8508
  943SOL    HW2 2644   1.795   0.520   1.399  1.9667 -1.8257 -1.2439
  944SOL     OW 2645   1.030   1.470   2.931  0.3507 -0.6043 -0.3719
  944SOL    HW1 2646   1.065   1.546   2.978 -0.7692 -0.0169 -0.4449
  944SOL    HW2 2647   0.955   1.442   2.984  0.6895 -1.6106 -0.4014
  945SOL     OW 2648   0.500   0.458   3.000  0.3376 -0.7691  0.3963
  945SOL    HW1 2649   0.492   0.415   2.915  0.8734  0.7508 -0.4627
  945SOL    HW2 2650   0.413   0.451   3.039 -0.3830 -0.0055 -1.0206
  946SOL     OW 2651   0.863   0.500   0.061 -0.2250  0.2089  0.0233
  946SOL    HW1 2652   0.950   0.516   0.024 -0.0010  1.1506  0.9068
  946SOL    HW2 2653   0.803   0.548   0.005 -0.0950  0.1738 -0.1458
  947SOL     OW 2654   1.217   0.026   0.579  0.0189  0.2919 -0.2736
  947SOL    HW1 2655   1.310   0.032   0.561  0.0320  0.3533 -0.1832
  947SOL    HW2 2656   1.175   0.046   0.495  0.1087 -1.1037 -0.6811
  948SOL     OW 2657   1.946   3.113   2.295 -0.1360  0.3471 -0.5386
  948SOL    HW1 2658   2.023   3.091   2.347 -0.0671  0.7484 -0.4708
  948SOL    HW2 2659   1.959   3.067   2.212  0.0997  0.2877 -0.4683
  949SOL     OW 2660   1.165   2.023   1.785  0.0475 -0.6433 -0.3025
  949SOL    HW1 2661   1.120   2.097   1.745  0.0778 -1.3508 -1.6910
  949SOL    HW2 2662   1.098   1.980   1.838 -0.1901 -0.1302 -0.1770
  950SOL     OW 2663   0.348   0.880   0.082  0.0617  0.4528  0.2574
  950SOL    HW1 2664   0.319   0.904  -0.006  1.6035  1.1653 -0.0894
  950SOL    HW2 2665   0.287   0.926   0.141 -0.6191  0.4454 -0.4243
  951SOL     OW 2666   0.418   1.167   1.462 -0.0172  0.1382 -0.0008
  951SOL    HW1 2667   0.503   1.210   1.452 -0.7168  1.4568 -0.4886
  951SOL    HW2 2668   0.374   1.217   1.531 -0.5955 -0.1941 -0.1231
  952SOL     OW 2669   1.989   2.946   0.031 -0.6623 -0.0804  0.2608
  952SOL    HW1 2670   2.057   2.890   0.069 -0.4486  0.3369  0.5038
  952SOL    HW2 2671   2.026   2.974  -0.053 -1.3334 -1.3891 -0.4959
  953SOL     OW 2672   2.473   1.877   0.496  0.6743  1.0484  0.1811
  953SOL    HW1 2673   2.528   1.803   0.521 -1.2581 -1.5763 -2.5607
  953SOL    HW2 2674   2.389   1.860   0.538 -0.2143  0.8151 -1.5812
  954SOL     OW 2675   2.678   1.522   2.925 -0.3624  0.1969  0.1864
  954SOL    HW1 2676   2.682   1.457   2.855  0.2255 -0.2617  0.6380
  954SOL    HW2 2677   2.593   1.505   2.967 -0.1554 -0.3771  0.3871
  955SOL     OW 2678   0.922   0.440   1.114 -0.5629  0.1485  0.8791
  955SOL    HW1 2679   0.981   0.371   1.143  1.8779  1.9016  0.3610
  955SOL    HW2 2680   0.904   0.419   1.022  0.0565  0.1041  0.7636
  956SOL     OW 2681   1.984   2.857   0.636  0.8788 -0.3294  0.2851
  956SOL    HW1 2682   1.948   2.882   0.551  1.4103  0.4555  0.2747
  956SOL    HW2 2683   1.934   2.780   0.662  0.3326 -0.2454 -0.4834
  957SOL     OW 2684   1.793   1.000   0.521 -0.6767 -0.2488  0.5078
  957SOL    HW1 2685   1.815   1.022   0.612 -1.7925 -0.2205  0.7845
  957SOL    HW2 2686   1.874   0.962   0.486 -0.1307  0.0269  1.4111
  958SOL     OW 2687   2.093   2.696   0.178  0.3270  0.0502  0.4485
  958SOL    HW1 2688   2.008   2.675   0.139  1.1140 -1.3524 -0.6273
  958SOL    HW2 2689   2.085   2.670   0.269 -0.8219  1.2417  0.7238
  959SOL     OW 2690   1.945   2.892   1.128 -0.5101  0.6537 -0.3801
  959SOL    HW1 2691   1.866   2.838   1.130 -0.2353  0.0994 -2.2399
  959SOL    HW2 2692   1.946   2.930   1.040  0.7109  1.5616 -0.0111
  960SOL     OW 2693   1.459   0.679   0.348  0.3184 -0.2102  0.1883
  960SOL    HW1 2694   1.551   0.665   0.369 -0.0465 -2.4412  0.5880
  960SOL    HW2 2695   1.420   0.708   0.430  0.1272 -2.3693  0.9121
  961SOL     OW 2696   2.827   1.245   1.011  0.2442 -0.4002 -0.0767
  961SOL    HW1 2697   2.832   1.154   0.982 -1.8368 -0.3129 -0.8651
  961SOL    HW2 2698   2.737   1.271   0.994  0.8514  1.9106 -0.1193
  962SOL     OW 2699   2.538   2.947   2.676 -0.3083  0.2004  0.4492
  962SOL    HW1 2700   2.466   2.894   2.640  0.4264 -0.1497 -0.5642
  962SOL    HW2 2701   2.592   2.968   2.600 -0.4029  2.1591  0.8861
  963SOL     OW 2702   3.029   1.924   1.111  0.2773 -0.8794  0.4844
  963SOL    HW1 2703   3.039   1.928   1.206  1.2261 -0.7016  0.3854
  963SOL    HW2 2704   2.986   1.840   1.095 -1.2316 -0.2678  1.1598
  964SOL     OW 2705   1.905   2.564   2.586  0.0857 -0.3292 -0.2866
  964SOL    HW1 2706   1.890   2.545   2.493  2.0908 -1.1864 -0.4833
  964SOL    HW2 2707   1.821   2.546   2.628 -0.7117 -0.4195 -1.8623
  965SOL     OW 2708   2.749   2.955   1.591 -0.0926 -0.4718  0.2286
  965SOL    HW1 2709   2.687   2.885   1.571  0.0243 -0.5357  0.0896
  965SOL    HW2 2710   2.818   2.912   1.640  0.4885 -0.6594 -0.7271
  966SOL     OW 2711   1.121   0.761   0.863  0.1294  0.1613  0.6081
  966SOL    HW1 2712   1.026   0.757   0.876  0.3171 -0.5124  1.9657
  966SOL    HW2 2713   1.132   0.761   0.768 -1.1857 -1.3239  0.4034
  967SOL     OW 2714   2.311   0.926   2.865  0.6671 -0.0793 -0.4126
  967SOL    HW1 2715   2.274   1.007   2.830 -0.8288 -1.1241 -1.3486
  967SOL    HW2 2716   2.353   0.885   2.789 -0.9473 -1.4538 -0.6112
  968SOL     OW 2717   1.173   2.011   0.314  1.0786  0.3086  0.0869
  968SOL    HW1 2718   1.093   2.059   0.334 -1.3847 -2.8088 -1.3044
  968SOL    HW2 2719   1.244   2.067   0.345 -1.6119  3.1778  1.5786
  969SOL     OW 2720   0.599   1.534   1.720 -0.0101 -0.1029 -0.0394
  969SOL    HW1 2721   0.565   1.597   1.784 -1.3796 -0.1592 -0.6721
  969SOL    HW2 2722   0.677   1.497   1.762  0.3884  1.4411  0.6645
  970SOL     OW 2723   0.698   1.223   1.462  0.1884  0.3214 -0.0549
  970SOL    HW1 2724   0.769   1.171   1.500  0.3330  1.0187  0.6682
  970SOL    HW2 2725   0.727   1.243   1.373  0.7534  0.3354  0.1266
  971SOL     OW 2726   1.079   1.731   0.452  0.0501  0.0914  0.1830
  971SOL    HW1 2727   1.089   1.704   0.360  2.0342  0.4524  0.2372
  971SOL    HW2 2728   1.031   1.659   0.493 -0.5189 -0.2580 -1.0451
  972SOL     OW 2729   2.641   1.946   2.578 -0.0555 -0.0009  0.1482
  972SOL    HW1 2730   2.731   1.977   2.562 -0.4667  0.7741 -0.7567
  972SOL    HW2 2731   2.589   1.989   2.510 -1.6609  2.0826  2.5590
  973SOL     OW 2732   0.958   2.151   2.813 -0.2183 -0.1219  0.2714
  973SOL    HW1 2733   0.927   2.152   2.722 -1.8020  1.0323  0.7674
  973SOL    HW2 2734   0.934   2.238   2.846 -1.0351 -1.0453  2.2115
  974SOL     OW 2735   1.296   2.207   2.649  0.4222  0.0421 -0.3620
  974SOL    HW1 2736   1.376   2.252   2.623  0.2725  0.8777  0.5412
  974SOL    HW2 2737   1.325   2.119   2.673  0.8722 -0.0552 -1.2320
  975SOL     OW 2738   1.752   1.054   0.996 -0.0917  0.1062 -0.4064
  975SOL    HW1 2739   1.798   1.081   1.076  1.3831  2.1423 -1.8336
  975SOL    HW2 2740   1.737   0.960   1.008  0.9258  0.1560  1.8427
  976SOL     OW 2741   0.168   2.091   0.105 -0.7186 -0.1235 -0.2980
  976SOL    HW1 2742   0.080   2.086   0.143 -1.2396  1.0915 -1.2525
  976SOL    HW2 2743   0.179   2.184   0.083  0.8260 -0.2503 -0.1673
  977SOL     OW 2744   2.997   2.935   2.480  0.1962  0.1581  0.2639
  977SOL    HW1 2745   3.082   2.891   2.491  1.1488  1.8185 -0.1028
  977SOL    HW2 2746   3.002   3.012   2.536 -0.5599  0.9690 -0.7482
  978SOL     OW 2747   1.799   1.820   3.018  0.2478 -0.9232  0.1227
  978SOL    HW1 2748   1.773   1.911   3.010  0.5535 -0.8561 -0.1267
  978SOL    HW2 2749   1.733   1.771   2.968 -1.0739 -1.0404  1.9097
  979SOL     OW 2750   2.124   0.788   1.681  0.1869 -0.0216  0.5263
  979SOL    HW1 2751   2.088   0.846   1.614  0.6460  0.5641  0.7674
  979SOL    HW2 2752   2.213   0.770   1.651 -0.7475 -2.7455 -0.8858
  980SOL     OW 2753   2.702   2.527   0.387 -0.4539 -0.3220 -0.3349
  980SOL    HW1 2754   2.769   2.542   0.453 -0.6703 -0.5970 -0.0505
  980SOL    HW2 2755   2.685   2.433   0.390  1.7112 -0.8988 -2.9146
  981SOL     OW 2756   0.654   3.034   1.969  0.2835 -0.3175 -0.3603
  981SOL    HW1 2757   0.687   2.951   2.004  1.5391  0.2803 -0.0705
  981SOL    HW2 2758   0.591   3.008   1.901  0.7493 -1.5003 -0.3646
  982SOL     OW 2759   1.383   3.032   0.065 -0.5608  0.0749 -0.0727
  982SOL    HW1 2760   1.454   2.967   0.062  0.1259  0.8067  0.1412
  982SOL    HW2 2761   1.311   2.986   0.109 -1.4227 -1.7977 -3.0713
  983SOL     OW 2762   0.651   0.017   2.575  0.3330  0.0331 -0.0562
  983SOL    HW1 2763   0.646   0.112   2.563  1.2800  0.3709  1.9121
  983SOL    HW2 2764   0.606  -0.019   2.498 -0.4255  2.0641 -0.6278
  984SOL     OW 2765   1.501   2.066   2.373 -0.1218  0.3182  0.3075
  984SOL    HW1 2766   1.507   2.152   2.415  0.1655  1.5686 -2.1587
  984SOL    HW2 2767   1.475   2.007   2.444  1.2187  2.1199  2.4339
  985SOL     OW 2768   1.441   2.534   1.232  0.7692 -0.2075 -0.1888
  985SOL    HW1 2769   1.426   2.595   1.304 -1.1887  1.4015 -1.8141
  985SOL    HW2 2770   1.534   2.514   1.236  0.7870  0.0225  2.5706
  986SOL     OW 2771   1.080   0.380   1.723  0.3714 -0.9338  0.1429
  986SOL    HW1 2772   1.057   0.352   1.811  0.9625 -3.1911 -0.3596
  986SOL    HW2 2773   0.998   0.372   1.673  0.5616 -1.8876 -0.0206
  987SOL     OW 2774   2.431   1.471   3.024 -0.3434 -0.2117  0.4369
  987SOL    HW1 2775   2.358   1.471   3.086 -0.6721 -0.2617  0.0508
  987SOL    HW2 2776   2.442   1.379   3.000  0.3162 -0.3015  1.0349
  988SOL     OW 2777   0.026   0.403   2.638  0.3349 -0.1416 -0.0643
  988SOL    HW1 2778   0.047   0.494   2.617  0.7550 -0.2889 -0.3088
  988SOL    HW2 2779  -0.037   0.409   2.709  0.4084  0.3423 -0.0322
  989SOL     OW 2780   2.664   0.581   2.536  0.0688  0.2762 -0.8098
  989SOL    HW1 2781   2.636   0.561   2.447  0.1093  0.6181 -0.9009
  989SOL    HW2 2782   2.756   0.555   2.538  0.1248  0.4659 -0.9298
  990SOL     OW 2783   1.577   1.747   1.071 -0.2537  0.4174  0.6228
  990SOL    HW1 2784   1.539   1.714   0.989 -0.8443 -0.1115  1.0979
  990SOL    HW2 2785   1.659   1.788   1.044  2.2304 -4.1500  0.2960
  991SOL     OW 2786   1.890   1.780   2.555  0.8842  0.2387 -0.5575
  991SOL    HW1 2787   1.836   1.846   2.511  1.2269  0.0668 -1.2541
  991SOL    HW2 2788   1.974   1.823   2.569  1.6631 -0.5425 -2.5055
  992SOL     OW 2789   1.217   0.443   2.716 -0.3895  0.2223 -0.1278
  992SOL    HW1 2790   1.296   0.440   2.770 -0.8970  0.1080  0.6255
  992SOL    HW2 2791   1.176   0.357   2.727 -0.8847  0.4555 -0.1040
  993SOL     OW 2792   1.656   0.196   0.601 -0.0233  0.1570 -0.3947
  993SOL    HW1 2793   1.672   0.252   0.677  1.2905  0.6247 -0.9758
  993SOL    HW2 2794   1.722   0.127   0.608 -0.9211 -0.7048 -0.2718
  994SOL     OW 2795   1.275   0.878   2.018 -0.1918  0.1340 -0.5304
  994SOL    HW1 2796   1.249   0.831   1.938 -0.7165  0.1088 -0.3490
  994SOL    HW2 2797   1.224   0.959   2.016 -0.6321 -0.1246  0.0606
  995SOL     OW 2798   1.913   2.383   1.928 -0.0044  0.8195 -0.3623
  995SOL    HW1 2799   1.941   2.432   1.852 -0.3718 -0.2373 -1.2034
  995SOL    HW2 2800   1.885   2.298   1.894  1.7598 -0.4691  1.1399
  996SOL     OW 2801   2.934   1.414   1.201  0.3083 -0.0456  0.1078
  996SOL    HW1 2802   2.887   1.345   1.155 -0.2625  1.6351 -1.9976
  996SOL    HW2 2803   3.027   1.397   1.182  0.0996  0.4595 -1.5437
  997SOL     OW 2804   1.207   1.850   1.402 -0.0595  0.0200  0.0385
  997SOL    HW1 2805   1.289   1.873   1.358 -0.5578 -0.6993 -1.3252
  997SOL    HW2 2806   1.234   1.791   1.472  0.6401  0.2446 -0.0273
  998SOL     OW 2807   0.026   2.651   1.256 -0.3228 -0.7328 -0.6151
  998SOL    HW1 2808   0.098   2.590   1.239 -1.6499 -1.9713 -2.0047
  998SOL    HW2 2809   0.069   2.728   1.294  1.6099 -1.7994 -0.5194
  999SOL     OW 2810   0.082   1.071   1.574 -0.0888  0.3065  0.4893
  999SOL    HW1 2811   0.016   1.122   1.620  0.7090  0.2949  1.6642
  999SOL    HW2 2812   0.159   1.127   1.569  0.2637 -0.1780  0.3251
 1000SOL     OW 2813   1.922   0.803   1.171  0.1226 -0.4283  0.3893
 1000SOL    HW1 2814   1.913   0.737   1.240  1.7739 -1.0497  0.0516
 1000SOL    HW2 2815   1.856   0.779   1.106 -2.3842  0.9329  2.2608
 1001SOL     OW 2816   0.223   3.022   2.090  0.0214 -0.3419  0.4711
 1001SOL    HW1 2817   0.163   3.000   2.018 -0.0913 -0.5456  0.6264
 1001SOL    HW2 2818   0.165   3.041   2.164  0.1677 -1.8959  1.0168
 1002SOL     OW 2819   2.786   1.715   0.839  0.0328  0.2119  0.0614
 1002SOL    HW1 2820   2.740   1.707   0.755  0.1262  1.0878 -0.0818
 1002SOL    HW2 2821   2.756   1.640   0.890 -0.5044  0.0152 -0.5327
 1003SOL     OW 2822   3.060   0.090   0.687 -0.1345  0.1011  0.5981
 1003SOL    HW1 2823   3.042  -0.003   0.679  0.3019  0.0784 -0.2250
 1003SOL    HW2 2824   3.123   0.109   0.617  0.3742  0.8567  1.2381
 1004SOL     OW 2825   2.900   2.294   2.403  0.2205 -0.0874 -0.1966
 1004SOL    HW1 2826   2.948   2.361   2.451 -0.3189  0.0582  0.1404
 1004SOL    HW2 2827   2.810   2.325   2.399 -0.0740 -0.8633  0.1125
 1005SOL     OW 2828   2.343   1.844   0.915  0.0679 -0.1777  0.0819
 1005SOL    HW1 2829   2.296   1.761   0.928 -0.1839 -0.2531 -1.2423
 1005SOL    HW2 2830   2.364   1.846   0.822  1.2632  0.6311  0.3429
 1006SOL     OW 2831   0.486   1.593   1.221  0.8669 -0.3542 -0.3373
 1006SOL    HW1 2832   0.403   1.552   1.197  1.3900 -1.3416 -0.4895
 1006SOL    HW2 2833   0.511   1.551   1.303  2.7923 -2.4201 -1.8837
 1007SOL     OW 2834   0.367   1.354   0.221  0.2187  0.2210  0.3269
 1007SOL    HW1 2835   0.410   1.284   0.171  1.6661  0.3574  1.3303
 1007SOL    HW2 2836   0.355   1.424   0.157 -1.7398 -1.0719 -0.8339
 1008SOL     OW 2837   2.877   0.996   0.917  0.6734 -0.4803  0.3169
 1008SOL    HW1 2838   2.853   0.904   0.908 -0.9940  0.0317 -1.0936
 1008SOL    HW2 2839   2.914   1.020   0.832  0.9781  0.1880  0.6321
 1009SOL     OW 2840   0.230   0.291   2.502 -0.3225  0.3007  0.2286
 1009SOL    HW1 2841   0.303   0.352   2.511  0.2739 -0.4984  0.9187
 1009SOL    HW2 2842   0.159   0.331   2.552  0.3355  0.0341  1.4100
 1010SOL     OW 2843   2.457   1.365   2.744 -0.3536  0.2563  0.2701
 1010SOL    HW1 2844   2.422   1.454   2.742  1.2415  0.9083 -0.8787
 1010SOL    HW2 2845   2.549   1.375   2.719 -0.8589 -2.0214 -3.2203
 1011SOL     OW 2846   0.232   2.143   2.618  0.5350  0.0205 -0.4809
 1011SOL    HW1 2847   0.262   2.053   2.609 -0.9072 -0.5155 -0.2670
 1011SOL    HW2 2848   0.225   2.157   2.713  0.3282  0.2034 -0.5208
 1012SOL     OW 2849   0.466   2.058   1.871  0.3625 -0.5374  0.0459
 1012SOL    HW1 2850   0.526   2.113   1.820  2.1457 -1.8562  0.5989
 1012SOL    HW2 2851   0.431   1.996   1.807  0.0526 -0.1417 -0.1710
 1013SOL     OW 2852   0.473   2.675   2.269 -0.2370 -0.3040 -0.3758
 1013SOL    HW1 2853   0.483   2.763   2.233  0.2363 -0.1448  0.1200
 1013SOL    HW2 2854   0.389   2.645   2.236 -0.8706  0.7223  0.2214
 1014SOL     OW 2855   2.139   1.960   1.355 -0.6138 -0.2450 -0.0529
 1014SOL    HW1 2856   2.185   1.889   1.311 -0.8500 -0.1377 -0.4783
 1014SOL    HW2 2857   2.208   2.010   1.399 -0.6233 -1.8899  1.9704
 1015SOL     OW 2858   2.627   2.905   2.049  1.3518 -0.4009 -0.1594
 1015SOL    HW1 2859   2.625   2.936   1.958  1.9068 -2.4252 -0.9210
 1015SOL    HW2 2860   2.696   2.957   2.090 -0.6598  2.4318 -0.0706
 1016SOL     OW 2861   0.189   0.190   0.416  0.0136 -0.0320 -0.0699
 1016SOL    HW1 2862   0.109   0.228   0.380 -0.8039 -1.2764  0.3477
 1016SOL    HW2 2863   0.188   0.099   0.385  0.3140 -0.5693  1.4057
 1017SOL     OW 2864   1.311   2.473   0.162 -0.2537  0.4506  0.1104
 1017SOL    HW1 2865   1.221   2.455   0.135 -0.0748  0.8164 -0.7562
 1017SOL    HW2 2866   1.341   2.541   0.101  0.8787 -0.2477 -0.1330
 1018SOL     OW 2867   1.396   1.091   1.679 -0.1108  0.4310  0.5580
 1018SOL    HW1 2868   1.479   1.061   1.718 -0.4031  0.5875  1.3066
 1018SOL    HW2 2869   1.344   1.011   1.671 -0.5795  0.5961  1.7975
 1019SOL     OW 2870   1.361   0.401   2.473 -0.2199  0.3411  0.0154
 1019SOL    HW1 2871   1.455   0.390   2.490 -0.0869  1.5273  0.1081
 1019SOL    HW2 2872   1.326   0.437   2.555 -1.0512 -1.4470  0.5154
 1020SOL     OW 2873   2.334   2.015   1.549 -0.2150  0.0125  0.5159
 1020SOL    HW1 2874   2.400   2.083   1.553 -1.6319  1.6240 -1.4659
 1020SOL    HW2 2875   2.257   2.054   1.590 -1.4818  0.2459 -1.9217
 1021SOL     OW 2876   1.537   1.273   0.739 -0.3857  0.7687 -0.2122
 1021SOL    HW1 2877   1.615   1.296   0.688 -0.2670  0.3698 -0.2112
 1021SOL    HW2 2878   1.533   1.340   0.808  2.2150 -1.3610  2.2654
 1022SOL     OW 2879   2.759   1.158   3.031  0.3438 -0.1937 -0.1509
 1022SOL    HW1 2880   2.710   1.185   3.109  1.4497 -0.1583  0.5548
 1022SOL    HW2 2881   2.779   1.240   2.986  0.2135 -0.1693 -0.1666
 1023SOL     OW 2882   0.526   2.043   1.339 -0.3722 -0.2076  0.1927
 1023SOL    HW1 2883   0.479   1.959   1.337 -0.4932 -0.1373  0.0660
 1023SOL    HW2 2884   0.612   2.021   1.374 -0.2347 -0.4718 -0.2915
 1024SOL     OW 2885   2.508   1.826   1.675 -0.2182 -0.0527  0.3564
 1024SOL    HW1 2886   2.453   1.888   1.628  0.7803  0.1749 -0.5582
 1024SOL    HW2 2887   2.533   1.871   1.755 -0.2656  0.3535  0.1415
 1025SOL     OW 2888   2.683   3.005   1.210 -0.0433  0.3585  0.2888
 1025SOL    HW1 2889   2.672   2.912   1.230 -2.5551  0.4693 -0.1743
 1025SOL    HW2 2890   2.777   3.018   1.205  0.3828 -2.1083  0.5970
 1026SOL     OW 2891   1.366   1.798   2.996 -0.0131 -0.2051  0.4805
 1026SOL    HW1 2892   1.314   1.870   2.962  0.8177  0.2914  0.2121
 1026SOL    HW2 2893   1.354   1.801   3.091 -1.2082 -0.6962  0.3576
 1027SOL     OW 2894   2.066   1.727   2.958  0.1823 -0.1254  0.1948
 1027SOL    HW1 2895   2.107   1.792   3.014 -0.3039  1.3987 -1.1291
 1027SOL    HW2 2896   1.972   1.747   2.962  0.0977 -0.2715 -0.7926
 1028SOL     OW 2897   1.172   1.069   2.857 -0.0356 -0.0567  0.1295
 1028SOL    HW1 2898   1.259   1.084   2.894 -0.0539 -1.0995  0.6470
 1028SOL    HW2 2899   1.114   1.069   2.934 -0.4835  0.5300 -0.2011
 1029SOL     OW 2900   1.081   0.034   2.083  0.1905  0.2911  0.8467
 1029SOL    HW1 2901   1.047   0.051   2.170  0.4451 -1.1308  1.2426
 1029SOL    HW2 2902   1.173   0.010   2.097  1.8937  4.9652 -0.2553
 1030SOL     OW 2903   1.068   1.846   1.995 -0.3406 -0.7230 -0.3568
 1030SOL    HW1 2904   1.067   1.930   2.040  0.1158  0.0448 -1.7351
 1030SOL    HW2 2905   1.151   1.806   2.022  0.2567  0.0320 -1.0050
 1031SOL     OW 2906   2.808   1.917   1.960 -0.2501  0.1171 -0.2083
 1031SOL    HW1 2907   2.839   1.849   2.020 -0.6960  0.3071  0.2465
 1031SOL    HW2 2908   2.841   1.890   1.875  0.1537 -0.3101  0.0765
 1032SOL     OW 2909   1.795   0.010   2.986  0.0968 -0.3301  0.3138
 1032SOL    HW1 2910   1.773  -0.073   3.027 -1.4792  0.1812  0.5513
 1032SOL    HW2 2911   1.776   0.076   3.053  1.3356  0.2372  0.1416
 1033SOL     OW 2912   2.108   0.157   1.163  0.1241  0.6123 -0.4047
 1033SOL    HW1 2913   2.014   0.171   1.147 -0.1029 -1.1976 -0.9128
 1033SOL    HW2 2914   2.120   0.180   1.255 -1.7517 -2.9383  0.9397
 1034SOL     OW 2915   1.751   2.456   1.270  0.2297  0.0942  0.5561
 1034SOL    HW1 2916   1.707   2.377   1.240 -1.3097  1.1609 -0.1669
 1034SOL    HW2 2917   1.742   2.455   1.365 -0.1082 -0.4141  0.5177
 1035SOL     OW 2918   1.427   1.123   2.624 -0.3104 -0.4059  0.2666
 1035SOL    HW1 2919   1.508   1.102   2.578 -0.5086  1.0283 -0.7978
 1035SOL    HW2 2920   1.374   1.170   2.560 -1.2315  0.2994  1.4971
 1036SOL     OW 2921   1.371   0.499   1.424  0.0396 -0.2392 -0.6725
 1036SOL    HW1 2922   1.298   0.439   1.413 -0.5605  0.6383 -1.6412
 1036SOL    HW2 2923   1.389   0.499   1.518 -0.6413 -1.1108 -0.5379
 1037SOL     OW 2924   1.222   0.269   3.010  0.6447  0.5974  0.2401
 1037SOL    HW1 2925   1.162   0.254   3.082 -0.7276  1.9455 -0.5543
 1037SOL    HW2 2926   1.232   0.183   2.969 -0.9243  0.3626  0.2832
 1038SOL     OW 2927   3.013   2.122   1.981 -0.4714 -0.1759 -0.4537
 1038SOL    HW1 2928   3.087   2.146   1.926  0.0861 -0.3193  0.2247
 1038SOL    HW2 2929   2.961   2.063   1.926 -0.1824  0.0620 -0.9939
 1039SOL     OW 2930   2.695   0.430   1.420  0.2245  0.3890 -1.1700
 1039SOL    HW1 2931   2.613   0.403   1.459  0.6200 -0.0348 -0.6179
 1039SOL    HW2 2932   2.726   0.501   1.475  1.0882 -0.6186 -0.3075
 1040SOL     OW 2933   1.768   2.686   1.107  0.4562  0.5611 -0.1056
 1040SOL    HW1 2934   1.836   2.658   1.046  1.5908  1.5132  0.6511
 1040SOL    HW2 2935   1.769   2.620   1.176  0.0574  0.1514 -0.4938
 1041SOL     OW 2936   1.817   2.970   2.678  0.4770 -0.1877 -0.4460
 1041SOL    HW1 2937   1.762   3.009   2.610  0.1839 -1.3113 -0.8648
 1041SOL    HW2 2938   1.897   2.944   2.632  0.2629 -0.9846 -0.3841
 1042SOL     OW 2939   1.921   2.500   0.968  0.0862 -0.4483  0.6515
 1042SOL    HW1 2940   2.015   2.494   0.948  0.1487 -1.1057  1.1238
 1042SOL    HW2 2941   1.894   2.410   0.984 -0.8036 -0.3577 -0.2132
 1043SOL     OW 2942   2.128   1.234   0.770 -0.4598  0.1263 -0.1845
 1043SOL    HW1 2943   2.127   1.219   0.675  0.0598 -2.7591  0.1805
 1043SOL    HW2 2944   2.181   1.163   0.805 -1.9821  0.1585  2.4353
 1044SOL     OW 2945   0.630   0.599   2.256 -0.2537  0.0243  0.0538
 1044SOL    HW1 2946   0.662   0.512   2.277  0.2093  0.3632  0.8067
 1044SOL    HW2 2947   0.603   0.594   2.164 -1.2835 -1.2141  0.3983
 1045SOL     OW 2948   1.728   0.184   0.068 -0.1587  0.1123 -0.6475
 1045SOL    HW1 2949   1.744   0.209   0.159 -0.3510 -0.9457 -0.3014
 1045SOL    HW2 2950   1.633   0.190   0.058 -0.1416  0.1839 -0.7567
 1046SOL     OW 2951   0.424   0.766   0.359  0.3568  0.6108 -0.1634
 1046SOL    HW1 2952   0.375   0.701   0.309 -0.5813  1.1919 -0.0182
 1046SOL    HW2 2953   0.490   0.799   0.298  1.1412 -0.7863 -0.1025
 1047SOL     OW 2954   0.029   2.861   0.894  0.6124 -0.3393  0.4964
 1047SOL    HW1 2955   0.031   2.768   0.915  0.8825 -0.1950  1.1156
 1047SOL    HW2 2956   0.119   2.891   0.908  0.7603 -0.1828 -0.6454
 1048SOL     OW 2957   2.718   1.295   1.792 -0.4084 -0.0897  0.5750
 1048SOL    HW1 2958   2.685   1.206   1.778  0.2249 -0.1923 -0.3498
 1048SOL    HW2 2959   2.698   1.341   1.711 -2.0472  1.0583  1.5885
 1049SOL     OW 2960   2.127   1.464   3.070 -0.0860  0.3044  0.1041
 1049SOL    HW1 2961   2.170   1.536   3.116 -0.0539 -0.4046  1.2256
 1049SOL    HW2 2962   2.033   1.480   3.084 -0.1067  0.5693 -0.3366
 1050SOL     OW 2963   2.234   1.168   2.756  0.4732  0.1699 -0.5517
 1050SOL    HW1 2964   2.171   1.227   2.798 -1.8471 -0.3526 -3.0322
 1050SOL    HW2 2965   2.309   1.224   2.737  0.5760  0.9852  1.8255
 1051SOL     OW 2966   1.662   2.987   1.570  0.1153  0.7572  0.1700
 1051SOL    HW1 2967   1.741   3.022   1.527  0.6052  0.2823  0.6706
 1051SOL    HW2 2968   1.606   3.064   1.582  0.1007  0.9579 -1.0089
 1052SOL     OW 2969   1.183   2.433   0.839  0.0216  0.1690 -0.3387
 1052SOL    HW1 2970   1.252   2.398   0.783 -1.6694  0.9586 -3.1170
 1052SOL    HW2 2971   1.188   2.528   0.826 -1.4082  0.2522 -0.4055
 1053SOL     OW 2972   0.087   2.771   2.541 -0.2733 -1.2499  0.2806
 1053SOL    HW1 2973   0.172   2.809   2.564  0.0396 -2.2024  0.7455
 1053SOL    HW2 2974   0.097   2.678   2.560 -0.0305 -2.1724 -3.5544
 1054SOL     OW 2975   1.647   0.940   2.793 -0.4826 -0.2825  0.0213
 1054SOL    HW1 2976   1.561   0.915   2.825 -0.8272 -0.8670 -1.2907
 1054SOL    HW2 2977   1.653   0.899   2.707  0.9687  0.0405 -0.0543
 1055SOL     OW 2978   1.190   2.265   1.077 -0.0658  0.3594  0.3662
 1055SOL    HW1 2979   1.101   2.235   1.097 -0.5560  1.0987 -0.5972
 1055SOL    HW2 2980   1.183   2.305   0.991  1.3476 -0.1199 -0.0072
 1056SOL     OW 2981   1.455   1.491   0.325  0.1592 -0.2787 -0.6190
 1056SOL    HW1 2982   1.385   1.434   0.357  0.4042 -0.5211 -0.5129
 1056SOL    HW2 2983   1.465   1.557   0.393 -0.1367 -0.0929 -0.7502
 1057SOL     OW 2984   2.430   2.034   1.142 -0.9938 -0.2666 -0.1368
 1057SOL    HW1 2985   2.365   2.103   1.129 -0.4106  0.1277 -1.0648
 1057SOL    HW2 2986   2.482   2.035   1.062 -0.3387 -1.1052  0.2661
 1058SOL     OW 2987   0.315   1.766   1.404  0.3941 -0.1886  0.0379
 1058SOL    HW1 2988   0.327   1.688   1.458  0.3719  0.0204  0.3499
 1058SOL    HW2 2989   0.346   1.741   1.317 -1.3954 -1.1463 -0.3596
 1059SOL     OW 2990   1.083   0.864   0.564  0.4536  0.2360  0.0796
 1059SOL    HW1 2991   1.019   0.903   0.505 -0.1069  2.1908  1.8452
 1059SOL    HW2 2992   1.116   0.938   0.615  1.4168 -1.2526  1.7163
 1060SOL     OW 2993   1.144   1.077   0.733 -0.1091  1.1288 -0.0022
 1060SOL    HW1 2994   1.121   1.097   0.824  1.0597  2.4720  0.0274
 1060SOL    HW2 2995   1.148   1.163   0.690  0.8291  0.6287 -0.9487
 1061SOL     OW 2996   0.230   2.144   2.915 -0.1962  0.0248 -0.0051
 1061SOL    HW1 2997   0.144   2.186   2.918  0.4297  1.3742 -0.1758
 1061SOL    HW2 2998   0.236   2.095   2.998 -0.8070  0.5712  0.3703
 1062SOL     OW 2999   1.397   0.275   0.927  0.0714  0.3665  0.4824
 1062SOL    HW1 3000   1.324   0.273   0.866  0.0179 -0.7166  0.5571
 1062SOL    HW2 3001   1.438   0.361   0.913  0.2069  0.0562 -1.2383
 1063SOL     OW 3002   2.037   0.402   2.679  0.0418  0.2310  0.3729
 1063SOL    HW1 3003   2.033   0.323   2.732  0.3412  0.2139  0.3705
 1063SOL    HW2 3004   1.980   0.385   2.604  1.9449 -0.9167 -0.8902
 1064SOL     OW 3005   2.383   1.028   0.027  0.4504 -0.1601  0.3214
 1064SOL    HW1 3006   2.389   0.954   0.087 -2.6818  0.7524  2.0342
 1064SOL    HW2 3007   2.347   0.991  -0.053 -1.4663 -0.5391  1.2945
 1065SOL     OW 3008   1.407   1.551   1.896  0.1051 -0.6761  0.0556
 1065SOL    HW1 3009   1.313   1.561   1.876  0.2381 -0.7031 -0.5974
 1065SOL    HW2 3010   1.420   1.457   1.906  0.3860 -0.8248 -1.5247
 1066SOL     OW 3011   2.534   0.368   1.176 -0.3159 -0.1571 -0.3012
 1066SOL    HW1 3012   2.592   0.341   1.247  0.0536 -2.1899 -1.3084
 1066SOL    HW2 3013   2.448   0.336   1.202 -0.4673  0.3768 -0.1235
 1067SOL     OW 3014   2.235   1.752   0.597 -0.0132  0.1222 -0.2391
 1067SOL    HW1 3015   2.154   1.779   0.640  0.7912  0.7561  0.9248
 1067SOL    HW2 3016   2.239   1.657   0.610 -1.8014 -0.3920 -2.5360
 1068SOL     OW 3017   0.732   0.759   0.591  0.5395  0.2886 -0.0499
 1068SOL    HW1 3018   0.666   0.694   0.568 -1.2930  2.1984 -0.4491
 1068SOL    HW2 3019   0.737   0.755   0.687  0.0289 -0.0337 -0.0354
 1069SOL     OW 3020   2.562   1.684   2.690 -0.7199  0.5334 -0.3619
 1069SOL    HW1 3021   2.615   1.762   2.677  1.5979 -1.0530 -1.1146
 1069SOL    HW2 3022   2.594   1.647   2.773 -2.2985  0.7279  0.3656
 1070SOL     OW 3023   0.600   2.914   2.416 -0.3300  0.1721 -0.1940
 1070SOL    HW1 3024   0.552   2.937   2.336 -0.3202 -0.5641 -0.4132
 1070SOL    HW2 3025   0.678   2.868   2.385 -0.0572  0.3465  0.2203
 1071SOL     OW 3026   0.903   2.687   2.682 -0.0093  0.6733  0.3916
 1071SOL    HW1 3027   0.895   2.762   2.623 -1.0284  1.0869  1.0353
 1071SOL    HW2 3028   0.967   2.630   2.640 -1.3536  0.5306 -1.5744
 1072NA      NA 3029   1.946   1.998   1.460 -0.1061  0.1897 -0.2039
 1073NA      NA 3030   2.978   2.229   2.205  0.1001  0.4729  0.4201
 1074NA      NA 3031   0.950   0.694   0.473  0.2812  0.4623  0.1896
 1075CL      CL 3032   2.861   2.554   1.794  0.0756 -0.1288  0.2730
 1076CL      CL 3033   1.563   2.346   2.491 -0.4296  0.2524 -0.4057
 1077CL      CL 3034   2.179   2.301   1.107  0.6517 -0.2399 -0.1103
   3.11352   3.11352   3.11352
