Protein in water
 3891
   82ACE    CH3    1   2.452   0.638   0.544  0.0836 -0.1868 -0.3659
   82ACE   HH31    2   2.460   0.593   0.443 -0.2904 -1.6832  0.2497
   82ACE   HH32    3   2.394   0.732   0.530 -0.5824 -0.8255 -2.1593
   82ACE   HH33    4   2.553   0.668   0.581 -0.4145  1.4870 -0.2924
   82ACE      C    5   2.387   0.537   0.633  0.0407 -0.0842 -0.0355
   82ACE      O    6   2.437   0.500   0.739 -0.0064  0.0645  0.0308
   82SER      N    7   2.271   0.493   0.585 -0.3999  0.3919  0.0423
   82SER     HN    8   2.231   0.515   0.497  0.4674 -2.7601 -1.2525
   82SER     CA    9   2.218   0.377   0.648 -0.0265  0.6075 -0.2250
   82SER     HA   10   2.294   0.315   0.694 -1.6265 -0.7090  0.7584
   82SER     CB   11   2.122   0.416   0.761  0.0221  0.1711 -0.1921
   82SER    HB1   12   2.190   0.459   0.839  1.7233 -1.0719 -0.9450
   82SER    HB2   13   2.046   0.490   0.728 -0.6084  0.4020  1.6635
   82SER     OG   14   2.055   0.309   0.828 -0.5698 -0.2119 -0.0219
   82SER    HG1   15   2.115   0.297   0.902 -2.0092 -1.8484  0.9850
   82SER      C   16   2.129   0.301   0.548  0.0468  0.2067 -0.4309
   82SER      O   17   2.062   0.370   0.469 -0.1577  0.0948  0.0004
   83SER      N   18   2.130   0.169   0.549  0.1014 -0.0346 -0.1344
   83SER     HN   19   2.202   0.132   0.608  1.0112  2.8010  0.6534
   83SER     CA   20   2.038   0.076   0.481 -0.4905  0.4120 -0.5127
   83SER     HA   21   1.984   0.128   0.403 -0.5392  0.4035 -0.4844
   83SER     CB   22   2.128  -0.038   0.428 -0.0330 -0.2785 -0.3529
   83SER    HB1   23   2.063  -0.108   0.371 -0.0598 -0.9171  0.4479
   83SER    HB2   24   2.196   0.008   0.353  1.1235  1.3700  1.5766
   83SER     OG   25   2.194  -0.114   0.532  0.5922 -0.5992 -0.0937
   83SER    HG1   26   2.235  -0.053   0.595 -1.5153  1.7043 -0.7791
   83SER      C   27   1.932   0.026   0.576  0.2788 -0.1599  0.2705
   83SER      O   28   1.843  -0.053   0.543  0.9605 -0.3265  0.4353
   84ASN      N   29   1.932   0.074   0.700  0.4167 -0.9410  0.2681
   84ASN     HN   30   2.009   0.123   0.740 -0.1844 -0.4599  0.8641
   84ASN     CA   31   1.835   0.041   0.801  0.4562 -0.1019 -0.4845
   84ASN     HA   32   1.779  -0.045   0.767  0.0710  0.0871 -0.3292
   84ASN     CB   33   1.904   0.029   0.941 -0.5797 -0.2697 -0.8309
   84ASN    HB1   34   1.919   0.134   0.974 -0.6479 -0.1251 -1.2550
   84ASN    HB2   35   1.835  -0.014   1.016 -1.1993  1.4898 -0.3349
   84ASN     CG   36   2.025  -0.056   0.947  0.2641 -0.4149 -0.3746
   84ASN    OD1   37   2.118  -0.018   1.029  0.8004  0.6329  0.1429
   84ASN    ND2   38   2.040  -0.163   0.864  0.0920 -0.1241 -0.0451
   84ASN   HD21   39   1.985  -0.178   0.782  0.1946  1.6963 -0.4909
   84ASN   HD22   40   2.129  -0.206   0.880 -0.3510 -0.6940  0.9587
   84ASN      C   41   1.738   0.153   0.808 -0.4361 -0.6652 -0.1065
   84ASN      O   42   1.632   0.138   0.868 -0.1578 -0.7589 -0.8089
   85GLY      N   43   1.770   0.276   0.745 -0.0270  0.8515 -0.8272
   85GLY     HN   44   1.860   0.278   0.702 -0.4942  1.9048 -1.8243
   85GLY     CA   45   1.705   0.405   0.769  0.4425  0.1342  0.1761
   85GLY    HA1   46   1.730   0.479   0.695 -2.3497  1.4798  0.4508
   85GLY    HA2   47   1.600   0.380   0.762 -0.0260  2.1577 -0.6150
   85GLY      C   48   1.726   0.461   0.908 -0.6410 -0.2646 -0.4270
   85GLY      O   49   1.638   0.525   0.965 -0.0397  0.2419  0.0442
   86ASN      N   50   1.842   0.444   0.965  0.2543  0.0894  0.3010
   86ASN     HN   51   1.908   0.388   0.916  1.5105  1.5996  0.1968
   86ASN     CA   52   1.879   0.505   1.098 -0.6794  0.1915  0.3450
   86ASN     HA   53   1.786   0.544   1.138  0.2700  1.9848  0.9032
   86ASN     CB   54   1.901   0.390   1.198  0.3347  0.0053 -0.1832
   86ASN    HB1   55   1.995   0.334   1.181 -0.2783 -1.3873  0.8118
   86ASN    HB2   56   1.916   0.430   1.300 -0.9452 -0.7689  0.3426
   86ASN     CG   57   1.791   0.285   1.205 -0.6269 -0.1046 -0.2024
   86ASN    OD1   58   1.674   0.306   1.179 -0.4842 -0.3941 -0.7260
   86ASN    ND2   59   1.832   0.167   1.262 -0.3979  0.6275 -0.8392
   86ASN   HD21   60   1.930   0.152   1.274 -0.8102 -1.3256  0.4242
   86ASN   HD22   61   1.757   0.106   1.286 -0.7744  0.4040 -2.4249
   86ASN      C   62   1.986   0.613   1.111  0.7084  0.7302  0.5433
   86ASN      O   63   2.098   0.583   1.070 -0.6342 -0.2593  0.1132
   87ALA      N   64   1.944   0.727   1.168 -0.1762  0.0927  0.3711
   87ALA     HN   65   1.849   0.730   1.198  0.4202  2.4766  2.4238
   87ALA     CA   66   2.037   0.840   1.199 -0.0390 -1.0006 -0.4432
   87ALA     HA   67   2.091   0.873   1.111 -0.1040 -0.1331 -0.1648
   87ALA     CB   68   1.958   0.958   1.263  0.6091 -0.2900  0.5623
   87ALA    HB1   69   2.029   1.039   1.291  1.4438 -1.2347  1.2472
   87ALA    HB2   70   1.885   0.999   1.190  1.1758  0.8380  0.6212
   87ALA    HB3   71   1.902   0.929   1.354  0.5870  2.3926  1.4615
   87ALA      C   72   2.139   0.796   1.312  0.0437  0.1855 -0.7687
   87ALA     NT   73   2.267   0.774   1.270 -0.0834 -0.6282  0.3192
   87ALA    HT1   74   2.283   0.769   1.171  0.4526  0.2141  0.3521
   87ALA    HT2   75   2.334   0.755   1.342 -0.1377 -0.6763  0.3564
   87ALA      O   76   2.103   0.778   1.429  0.1772  0.0740 -0.1688
   88SOL     OW   77   2.722   0.439   1.318  0.4520  0.2985 -0.1662
   88SOL    HW1   78   2.739   0.519   1.368 -3.0080  1.0103  0.1002
   88SOL    HW2   79   2.787   0.441   1.247  2.6469  1.5055  1.7388
   89SOL     OW   80   2.083   2.338   3.360 -0.1627 -0.3190 -0.1745
   89SOL    HW1   81   2.047   2.413   3.407 -1.4836 -1.1686  0.2184
   89SOL    HW2   82   2.134   2.290   3.425  1.4678  0.6836 -0.6427
   90SOL     OW   83   2.210   2.419   2.547 -0.2580  0.1928  0.7898
   90SOL    HW1   84   2.227   2.513   2.545  0.5099  0.1518 -2.9364
   90SOL    HW2   85   2.161   2.402   2.466  0.0457 -2.6670  1.1068
   91SOL     OW   86   0.416   2.409   0.427 -0.1380 -0.2835  0.2642
   91SOL    HW1   87   0.444   2.500   0.415  1.9012 -0.8318  0.3782
   91SOL    HW2   88   0.383   2.382   0.341  4.0348 -0.8750 -1.4420
   92SOL     OW   89   1.342   1.377   0.984  0.0779  0.2974  0.2086
   92SOL    HW1   90   1.317   1.300   1.035  0.5444 -0.7214 -1.0527
   92SOL    HW2   91   1.362   1.443   1.050 -1.5562 -0.2268  1.3206
   93SOL     OW   92   0.329   1.592   1.483 -0.0782 -0.0066 -0.0008
   93SOL    HW1   93   0.281   1.567   1.562 -1.8601  0.9838 -0.7105
   93SOL    HW2   94   0.298   1.532   1.416 -1.3545  1.4345 -0.7650
   94SOL     OW   95   0.290   2.604   2.902 -0.3983  0.1470 -0.0565
   94SOL    HW1   96   0.350   2.551   2.851 -1.3897  0.6235 -1.8044
   94SOL    HW2   97   0.297   2.570   2.991  2.4834  0.2502 -0.1479
   95SOL     OW   98   1.266   2.692   3.342 -0.1738  0.1089  0.4113
   95SOL    HW1   99   1.197   2.686   3.409  0.2962 -2.6713  0.7471
   95SOL    HW2  100   1.219   2.693   3.259 -0.6784 -1.0108  0.6664
   96SOL     OW  101   0.891   2.047   2.471 -0.0883  0.4534 -0.1683
   96SOL    HW1  102   0.818   2.006   2.425  0.2309 -1.0185  0.5941
   96SOL    HW2  103   0.944   2.085   2.401 -0.5715 -0.1513 -0.8830
   97SOL     OW  104   1.150   2.174   0.838 -0.0731  0.0616  0.4231
   97SOL    HW1  105   1.201   2.098   0.811  1.7024  1.5795 -0.7787
   97SOL    HW2  106   1.141   2.164   0.933  0.4481 -1.4248  0.3513
   98SOL     OW  107   2.595   1.359   2.204 -0.7533 -0.1499  0.3346
   98SOL    HW1  108   2.581   1.301   2.129 -1.5156  0.8187 -0.2901
   98SOL    HW2  109   2.690   1.357   2.217 -0.5389  0.0378 -0.9756
   99SOL     OW  110   1.155   1.478   1.431 -0.5057  0.1122  0.2410
   99SOL    HW1  111   1.124   1.395   1.395  0.4380 -1.5285  2.9383
   99SOL    HW2  112   1.076   1.519   1.468 -0.6570 -0.5768  0.6942
  100SOL     OW  113   0.472   2.258   3.334 -0.1277 -0.0470  0.5050
  100SOL    HW1  114   0.546   2.198   3.333  0.5145  0.7040 -0.6748
  100SOL    HW2  115   0.398   2.207   3.301 -0.1953 -0.8437  1.8294
  101SOL     OW  116   2.486   0.643   0.119  0.0714  0.3486 -0.1743
  101SOL    HW1  117   2.471   0.734   0.144 -0.7399  0.1016  0.2868
  101SOL    HW2  118   2.573   0.643   0.078 -0.2424  1.4696 -0.8983
  102SOL     OW  119   2.618   0.485   2.754 -0.9534 -0.5742 -0.0391
  102SOL    HW1  120   2.540   0.530   2.721  0.9658  2.1315 -1.2963
  102SOL    HW2  121   2.650   0.435   2.679 -0.0341  0.5266 -0.4066
  103SOL     OW  122   3.132   0.226   2.963  0.0417  0.4073 -0.2283
  103SOL    HW1  123   3.052   0.276   2.952  0.1775  0.1984 -2.8949
  103SOL    HW2  124   3.115   0.143   2.918  2.4096  1.2592 -3.0321
  104SOL     OW  125   0.159   3.267   1.513  0.0203  0.9427  0.5785
  104SOL    HW1  126   0.134   3.187   1.560 -1.4059  0.1076 -1.4376
  104SOL    HW2  127   0.253   3.274   1.525  0.3164 -1.5059  0.2256
  105SOL     OW  128   0.079   1.006   1.627 -0.0674 -0.3798 -0.4303
  105SOL    HW1  129   0.099   0.921   1.665  1.9603  0.0249 -0.4507
  105SOL    HW2  130   0.164   1.051   1.623 -1.0005  1.4501 -0.8852
  106SOL     OW  131   1.640   1.890   2.784 -0.6032  0.1334 -0.0438
  106SOL    HW1  132   1.646   1.826   2.713  1.7520 -0.6144  0.7523
  106SOL    HW2  133   1.596   1.843   2.855 -1.2906  0.2968 -0.3477
  107SOL     OW  134   0.524   1.040   0.413  0.1436  0.1446 -0.0140
  107SOL    HW1  135   0.583   1.067   0.343 -1.1947 -1.0463 -1.6890
  107SOL    HW2  136   0.579   1.038   0.492  2.9226 -2.8215 -1.7954
  108SOL     OW  137   3.341   1.193   1.479  0.0722  0.4869 -0.7041
  108SOL    HW1  138   3.308   1.280   1.502 -2.1911 -0.6060  0.4323
  108SOL    HW2  139   3.404   1.173   1.548  0.3923  1.0912 -0.8107
  109SOL     OW  140   3.253   0.019   1.009  0.2649 -0.2975 -0.2682
  109SOL    HW1  141   3.265  -0.012   1.098  1.2950 -1.0660 -0.6546
  109SOL    HW2  142   3.291   0.107   1.008  0.2654 -0.2940  0.0474
  110SOL     OW  143   1.357   2.006   0.729  0.4206  0.2776 -0.6632
  110SOL    HW1  144   1.285   1.967   0.679 -0.4751  1.6610 -0.4907
  110SOL    HW2  145   1.433   1.998   0.671  0.4417 -2.1834 -0.4238
  111SOL     OW  146   0.771   2.876   2.583  0.1689  0.2832  0.4434
  111SOL    HW1  147   0.708   2.833   2.525  0.2408  0.4325  0.2552
  111SOL    HW2  148   0.746   2.846   2.671 -0.3607  0.5837  0.3993
  112SOL     OW  149   3.299   2.474   0.634  0.1806  0.8628 -0.6135
  112SOL    HW1  150   3.295   2.566   0.659 -0.2244  1.5695 -3.0235
  112SOL    HW2  151   3.393   2.455   0.627  0.3521  0.4468  1.7754
  113SOL     OW  152   3.013   1.135   2.289 -0.0938 -0.1950 -0.2554
  113SOL    HW1  153   3.030   1.134   2.195  0.3530  2.6573 -0.2767
  113SOL    HW2  154   3.090   1.093   2.328  0.7900  0.6228 -1.0676
  114SOL     OW  155   0.523   2.166   2.672  0.0084  0.3455  0.1423
  114SOL    HW1  156   0.554   2.128   2.589 -2.9789  1.3096 -1.5642
  114SOL    HW2  157   0.451   2.109   2.699  0.5260  0.4240  1.7800
  115SOL     OW  158   2.401   1.903   3.316  0.2952  0.2367  0.1075
  115SOL    HW1  159   2.406   1.823   3.263 -1.2997 -0.0433  0.3432
  115SOL    HW2  160   2.479   1.952   3.291  0.1976 -0.4112 -1.6420
  116SOL     OW  161   1.842   1.600   2.993 -0.3724 -0.2661 -0.2374
  116SOL    HW1  162   1.801   1.686   3.001  0.1463  0.1826 -2.0115
  116SOL    HW2  163   1.925   1.609   3.040 -1.0384 -0.3448  1.0121
  117SOL     OW  164   3.268   2.969   1.301 -0.6400  0.3141 -0.2980
  117SOL    HW1  165   3.248   2.951   1.393  0.5807 -1.1330 -0.2766
  117SOL    HW2  166   3.199   2.924   1.252  0.6295 -1.9333 -0.1424
  118SOL     OW  167   0.595   2.950   0.915 -0.2250  0.2121  0.5635
  118SOL    HW1  168   0.516   2.897   0.901 -1.2167  1.9979 -1.1879
  118SOL    HW2  169   0.564   3.041   0.912  1.7469  0.9479  0.9600
  119SOL     OW  170   0.778   2.939   1.378 -0.2515 -0.3110 -0.4511
  119SOL    HW1  171   0.709   2.945   1.312 -0.7850 -0.1352  0.1093
  119SOL    HW2  172   0.827   2.860   1.355  1.4690  1.3152 -2.8336
  120SOL     OW  173   2.627   1.395   1.817  0.3413  0.7348  0.4667
  120SOL    HW1  174   2.661   1.324   1.871  1.2695  1.1174  0.3959
  120SOL    HW2  175   2.603   1.353   1.734 -1.1392  0.1363  1.1512
  121SOL     OW  176   2.136   2.705   0.080  0.2428 -0.1056 -0.3928
  121SOL    HW1  177   2.115   2.798   0.082 -2.0258 -0.5471 -0.5770
  121SOL    HW2  178   2.186   2.693  -0.000 -0.2238  0.8139 -0.8341
  122SOL     OW  179   2.183   2.552   2.074 -0.0688  0.0738 -0.3165
  122SOL    HW1  180   2.156   2.582   2.161  0.6168 -1.1205  0.3371
  122SOL    HW2  181   2.275   2.528   2.085 -0.0141 -0.2158 -1.3382
  123SOL     OW  182   1.138   0.511   2.757 -0.6901 -0.2776  0.2235
  123SOL    HW1  183   1.142   0.589   2.702 -0.1372 -0.5555 -0.1516
  123SOL    HW2  184   1.152   0.439   2.695 -0.3086 -0.6112  0.6991
  124SOL     OW  185   0.740   0.729   1.998  0.2001  0.4787  0.4118
  124SOL    HW1  186   0.762   0.815   1.963  1.1982  0.3754  0.7734
  124SOL    HW2  187   0.786   0.725   2.082 -1.2948  0.3003  1.2555
  125SOL     OW  188   1.798   1.386   2.499 -0.1966  0.3043  0.3188
  125SOL    HW1  189   1.870   1.432   2.457  0.8483 -1.3959  0.1436
  125SOL    HW2  190   1.813   1.294   2.479 -2.2855 -0.1395  0.4987
  126SOL     OW  191   2.120   1.750   2.856  0.3645 -0.0268  0.2976
  126SOL    HW1  192   2.053   1.709   2.802  0.9116 -0.3086 -0.1765
  126SOL    HW2  193   2.157   1.818   2.800 -0.8895  1.5102  1.2438
  127SOL     OW  194   2.667   1.662   1.946  0.1932 -0.3117 -0.4199
  127SOL    HW1  195   2.642   1.647   2.037  1.6770 -1.3089 -0.1531
  127SOL    HW2  196   2.669   1.575   1.907 -1.5414  0.1772 -1.7536
  128SOL     OW  197   2.281   0.961   0.974 -0.7916  0.3474  0.0236
  128SOL    HW1  198   2.223   0.994   0.906 -0.3233 -0.5673 -0.8533
  128SOL    HW2  199   2.321   0.883   0.936  0.3925  0.4878  0.9078
  129SOL     OW  200   1.111   2.189   1.516 -0.2147 -0.1123  0.4300
  129SOL    HW1  201   1.147   2.257   1.458 -0.9616  0.1377  0.2493
  129SOL    HW2  202   1.174   2.182   1.587  1.6868 -1.6934 -1.2844
  130SOL     OW  203   3.264   0.802   0.636 -0.2700  0.1271  0.4236
  130SOL    HW1  204   3.299   0.891   0.645  1.2026 -0.4919  0.9780
  130SOL    HW2  205   3.339   0.749   0.612 -1.4194 -0.7478 -1.4184
  131SOL     OW  206   0.392   1.495   0.457 -0.3317 -0.0521  0.1599
  131SOL    HW1  207   0.363   1.405   0.446  0.6113 -0.3416 -0.0380
  131SOL    HW2  208   0.456   1.508   0.386 -1.0883  1.0451 -0.3502
  132SOL     OW  209   1.186   2.009   1.316 -0.0292 -0.1908 -0.6450
  132SOL    HW1  210   1.128   1.941   1.352  3.5295 -2.4348  1.4930
  132SOL    HW2  211   1.190   2.076   1.385 -0.2415  0.0763 -0.8896
  133SOL     OW  212   1.347   3.336   1.306 -0.0313 -0.4197  0.0521
  133SOL    HW1  213   1.286   3.337   1.232 -0.8572  1.5919  0.7029
  133SOL    HW2  214   1.389   3.249   1.301  1.0066  0.1187 -3.6011
  134SOL     OW  215   2.566   3.021   0.621 -0.0664 -0.6314 -0.3799
  134SOL    HW1  216   2.559   3.069   0.538 -0.0965  1.2071  0.6208
  134SOL    HW2  217   2.517   2.940   0.607 -0.3766 -0.1829 -2.0316
  135SOL     OW  218   1.995   2.707   1.262  0.0035 -0.2105 -0.2345
  135SOL    HW1  219   1.907   2.744   1.248 -0.3515 -0.7465  0.4938
  135SOL    HW2  220   2.003   2.700   1.357  0.6180 -0.6915 -0.3146
  136SOL     OW  221   1.868   2.603   2.962  0.4370 -0.3227  0.1445
  136SOL    HW1  222   1.881   2.575   3.052  0.0288 -0.8006  0.0598
  136SOL    HW2  223   1.936   2.669   2.947  1.0234 -0.8203  0.5493
  137SOL     OW  224   1.159   0.774   0.141 -0.3591 -0.0191 -0.0801
  137SOL    HW1  225   1.168   0.692   0.191  0.2084 -0.9992 -1.7141
  137SOL    HW2  226   1.247   0.810   0.138 -0.3881  0.0269 -0.3803
  138SOL     OW  227   0.845   3.383   3.305  0.3453  0.0902 -0.4695
  138SOL    HW1  228   0.752   3.376   3.327  0.5950  0.4891  0.7552
  138SOL    HW2  229   0.851   3.343   3.218 -1.1483  1.0330 -1.0631
  139SOL     OW  230   1.343   2.158   2.186  0.6956  0.0638  0.1264
  139SOL    HW1  231   1.360   2.209   2.265  1.8625 -0.3617  0.1787
  139SOL    HW2  232   1.428   2.119   2.165 -0.1626 -1.9344  0.1466
  140SOL     OW  233   3.366   1.825   1.382 -0.7409  0.1817 -0.4782
  140SOL    HW1  234   3.332   1.891   1.321 -1.0957  0.1136 -0.3573
  140SOL    HW2  235   3.288   1.782   1.416 -0.5344  0.0795 -0.1302
  141SOL     OW  236   1.199   3.143   2.551  0.0779  0.7147 -0.3701
  141SOL    HW1  237   1.239   3.072   2.602 -1.8613 -1.8475 -2.1674
  141SOL    HW2  238   1.265   3.213   2.552  1.5995 -0.5772  2.5025
  142SOL     OW  239   1.749   1.733   0.145 -0.5383  0.5164  0.3199
  142SOL    HW1  240   1.806   1.724   0.221 -1.4987 -2.1241  0.8506
  142SOL    HW2  241   1.661   1.742   0.182 -0.9136  0.1506 -0.4643
  143SOL     OW  242   2.470   2.270   1.209 -0.3694  0.6902 -0.1600
  143SOL    HW1  243   2.555   2.308   1.189  0.3907 -0.1586  1.2575
  143SOL    HW2  244   2.425   2.338   1.260  0.7151  0.0372  1.7753
  144SOL     OW  245   2.182   2.127   0.111  0.2813  0.3577 -0.5909
  144SOL    HW1  246   2.209   2.138   0.203  0.8319  1.2474 -0.8499
  144SOL    HW2  247   2.222   2.045   0.084 -0.4401 -0.2603  0.1599
  145SOL     OW  248   2.634   2.499   2.811  0.2098  0.3715 -0.1875
  145SOL    HW1  249   2.595   2.485   2.897  1.0228 -2.4045 -0.1760
  145SOL    HW2  250   2.639   2.412   2.772  3.8136  0.9066 -1.3021
  146SOL     OW  251   2.813   2.215   2.851 -0.4578  0.0876  0.0998
  146SOL    HW1  252   2.744   2.199   2.787  0.4727 -1.2938 -0.6064
  146SOL    HW2  253   2.856   2.295   2.822  1.5076 -1.7632 -2.4990
  147SOL     OW  254   0.818   3.098   1.626  0.4673 -0.5776  0.6048
  147SOL    HW1  255   0.788   3.047   1.552  1.9120 -1.2685  0.4580
  147SOL    HW2  256   0.907   3.066   1.643  0.8392  0.8179  1.4836
  148SOL     OW  257   2.471   2.195   2.860  0.0182  0.2868 -0.2606
  148SOL    HW1  258   2.400   2.232   2.912 -0.3976  0.5316 -0.9929
  148SOL    HW2  259   2.507   2.125   2.915  0.8705  1.7927  1.2006
  149SOL     OW  260   2.535   3.074   2.505  0.6903  0.1580  0.1668
  149SOL    HW1  261   2.543   2.982   2.481 -2.7014  0.2084 -1.7050
  149SOL    HW2  262   2.542   3.121   2.422 -0.0548  1.3645  0.7699
  150SOL     OW  263   2.435   1.137   0.000  0.0305  0.5535 -0.6491
  150SOL    HW1  264   2.523   1.160  -0.029 -0.6813  2.0151 -1.7638
  150SOL    HW2  265   2.428   1.173   0.089  1.1130 -1.1198  0.1735
  151SOL     OW  266   1.088   1.897   0.158 -0.6984 -0.3740  0.0094
  151SOL    HW1  267   1.080   1.992   0.157 -0.1154 -0.3260 -0.2790
  151SOL    HW2  268   1.046   1.867   0.078  0.0577 -0.2796 -0.4271
  152SOL     OW  269   0.528   1.360   3.096  0.1522 -0.0415  0.2100
  152SOL    HW1  270   0.539   1.305   3.174 -1.3296  0.2764  0.6741
  152SOL    HW2  271   0.577   1.440   3.117  2.0686 -1.0136 -0.3493
  153SOL     OW  272   0.364   2.476   2.474 -0.1374  0.3602  0.5862
  153SOL    HW1  273   0.343   2.384   2.492  0.9692  0.3723  2.0847
  153SOL    HW2  274   0.370   2.480   2.378  0.5430 -1.3150  0.5157
  154SOL     OW  275   1.852   1.093   0.457 -0.0102 -0.5865  0.1312
  154SOL    HW1  276   1.769   1.108   0.413 -1.0247 -0.0285  2.1274
  154SOL    HW2  277   1.832   1.099   0.550  2.1366 -1.1542  0.7004
  155SOL     OW  278   1.840   3.011   0.694  0.2022  0.2006  0.1925
  155SOL    HW1  279   1.826   3.016   0.599  0.0840 -1.5843  0.0744
  155SOL    HW2  280   1.889   2.930   0.706 -0.9340 -0.2853  1.7704
  156SOL     OW  281   3.062   2.412   0.144  0.2238 -0.8279 -0.3814
  156SOL    HW1  282   3.010   2.402   0.224 -1.8903 -2.6795 -1.8879
  156SOL    HW2  283   3.054   2.504   0.121  0.9958 -0.2266  1.5610
  157SOL     OW  284   1.218   2.619   3.007  0.4123 -0.3043 -0.3759
  157SOL    HW1  285   1.128   2.634   2.978  0.1491  1.0564  1.0454
  157SOL    HW2  286   1.224   2.524   3.016 -2.0248 -0.3451  2.7374
  158SOL     OW  287   1.945   2.047   3.278  0.2304 -0.2023  0.8100
  158SOL    HW1  288   2.010   2.097   3.328 -1.1705  0.0129  2.5558
  158SOL    HW2  289   1.876   2.111   3.259  0.1644 -0.6014 -0.3329
  159SOL     OW  290   3.256   2.324   3.332  0.4679  0.3578 -0.4015
  159SOL    HW1  291   3.214   2.337   3.247 -1.3382  1.6690  0.6154
  159SOL    HW2  292   3.187   2.344   3.396  2.3357  1.5047  1.3704
  160SOL     OW  293   3.112   1.739   3.126  0.0815 -0.7743  0.0895
  160SOL    HW1  294   3.207   1.749   3.136  0.3541 -2.2941 -0.6387
  160SOL    HW2  295   3.094   1.774   3.039 -0.1727  0.2851  0.5586
  161SOL     OW  296   1.486   1.639   1.509 -0.1438 -0.4332  0.3223
  161SOL    HW1  297   1.394   1.653   1.533 -0.3841 -3.0508  1.2554
  161SOL    HW2  298   1.519   1.578   1.575  2.6440  1.2871  0.6869
  162SOL     OW  299   2.436   3.151   0.098  0.1676  0.0287 -0.1693
  162SOL    HW1  300   2.428   3.245   0.115  0.7749 -0.1376  1.1679
  162SOL    HW2  301   2.467   3.114   0.181  0.4392 -1.2852 -0.8297
  163SOL     OW  302   3.299   2.229   1.714 -0.4949 -0.4202 -0.1339
  163SOL    HW1  303   3.259   2.175   1.783 -0.4974  0.9444  0.9628
  163SOL    HW2  304   3.227   2.282   1.680 -0.1365  0.2101  0.0763
  164SOL     OW  305   0.983   0.334   1.154  0.1847  0.5519  0.3838
  164SOL    HW1  306   0.937   0.295   1.079 -0.1043 -0.0675  0.8743
  164SOL    HW2  307   1.011   0.259   1.207  0.9759  0.9567  0.5622
  165SOL     OW  308   0.872   0.271   3.323 -0.2061  0.0634 -0.1774
  165SOL    HW1  309   0.869   0.176   3.332 -0.3204  0.1439  0.6403
  165SOL    HW2  310   0.964   0.294   3.330 -0.2037  0.0366 -0.1229
  166SOL     OW  311   2.213   3.217   3.341  0.2184  0.5371  0.3144
  166SOL    HW1  312   2.190   3.303   3.376 -0.8096  0.5257 -0.2937
  166SOL    HW2  313   2.294   3.194   3.386  0.0452  1.4408  1.1307
  167SOL     OW  314   2.533   3.347   3.279 -0.2403  0.1582 -0.3733
  167SOL    HW1  315   2.577   3.347   3.194  1.8848  0.6864  0.6453
  167SOL    HW2  316   2.585   3.288   3.333 -0.5692  1.0851  1.0094
  168SOL     OW  317   1.850   1.391   1.957 -0.2774  0.1595 -0.6007
  168SOL    HW1  318   1.834   1.434   1.873  0.9605  0.8297 -0.5052
  168SOL    HW2  319   1.909   1.319   1.935 -1.0772 -0.5375 -0.5093
  169SOL     OW  320   0.398   0.852   0.728  0.0658  0.7308  0.2588
  169SOL    HW1  321   0.465   0.802   0.682 -0.6872  0.7882 -0.9405
  169SOL    HW2  322   0.443   0.932   0.757  0.5775  0.6558 -0.3138
  170SOL     OW  323   1.779   2.413   0.837 -0.0744  0.4878 -0.0263
  170SOL    HW1  324   1.807   2.501   0.862 -1.2843  0.7989  0.3430
  170SOL    HW2  325   1.708   2.428   0.774  1.4420 -0.2647 -2.0315
  171SOL     OW  326   0.947   2.877   0.700  0.2881 -0.0238 -0.5131
  171SOL    HW1  327   0.970   2.885   0.608  1.1188  1.5177 -0.1968
  171SOL    HW2  328   0.905   2.961   0.722 -0.4487 -0.5939  0.3751
  172SOL     OW  329   2.644   1.609   0.773  0.2297 -0.3415  0.5478
  172SOL    HW1  330   2.549   1.603   0.765  0.3592 -0.3548 -4.5495
  172SOL    HW2  331   2.673   1.520   0.789 -0.5845 -0.8099 -0.4603
  173SOL     OW  332   2.046   2.310   1.241 -0.5354 -0.0820 -0.0099
  173SOL    HW1  333   2.009   2.377   1.299 -1.2077 -1.1075  0.7795
  173SOL    HW2  334   2.096   2.254   1.299  2.6563  1.4403 -1.0858
  174SOL     OW  335   0.761   3.145   0.267  0.0889 -0.0580 -0.4347
  174SOL    HW1  336   0.701   3.111   0.333  1.3804 -0.2500  0.7110
  174SOL    HW2  337   0.730   3.109   0.184  0.0773 -2.1986  0.4289
  175SOL     OW  338   1.515   1.679   1.019  0.1808 -0.1286 -0.1983
  175SOL    HW1  339   1.599   1.643   0.993 -0.3280 -1.8024  0.3392
  175SOL    HW2  340   1.483   1.619   1.087 -1.5194  0.3462 -0.5264
  176SOL     OW  341   2.356   2.108   1.628 -0.2501 -0.3458 -0.5536
  176SOL    HW1  342   2.319   2.186   1.587 -0.0285 -0.4717 -1.0020
  176SOL    HW2  343   2.284   2.071   1.678 -0.4989 -0.1353 -0.7544
  177SOL     OW  344   1.460   2.306   1.313  0.2644  0.6052 -0.7966
  177SOL    HW1  345   1.531   2.326   1.253  1.1233  0.3322  0.0877
  177SOL    HW2  346   1.462   2.210   1.322 -0.7787  0.5098 -1.4197
  178SOL     OW  347   1.954   1.479   1.436 -0.2287  0.1003  0.1904
  178SOL    HW1  348   1.925   1.563   1.401 -0.4287  0.3384  0.9108
  178SOL    HW2  349   2.047   1.474   1.413 -0.1374  0.6652  0.4161
  179SOL     OW  350   0.143   2.263   1.539 -0.3374  0.3079 -0.2519
  179SOL    HW1  351   0.076   2.260   1.608  0.5806  1.0905  0.7194
  179SOL    HW2  352   0.159   2.356   1.525  0.4673  0.1430 -0.5213
  180SOL     OW  353   3.267   2.642   1.092 -0.3374 -0.2083  0.0799
  180SOL    HW1  354   3.315   2.723   1.111 -1.9666  0.7043  0.5011
  180SOL    HW2  355   3.315   2.603   1.019  0.7523  0.9021  0.1562
  181SOL     OW  356   0.892   3.311   3.058  0.2248  0.2408 -0.0103
  181SOL    HW1  357   0.887   3.225   3.016  1.7367  0.7789 -1.3945
  181SOL    HW2  358   0.976   3.346   3.030 -0.6902  2.4953 -0.1228
  182SOL     OW  359   1.282   2.792   0.746 -0.1400 -0.0749 -0.1331
  182SOL    HW1  360   1.245   2.845   0.675 -1.2902 -1.5472 -0.6824
  182SOL    HW2  361   1.373   2.778   0.718 -0.1668  0.5561 -0.5875
  183SOL     OW  362   2.262   1.012   0.579 -0.2038 -0.8512 -0.2279
  183SOL    HW1  363   2.225   0.952   0.644 -0.3709 -1.4307 -0.8461
  183SOL    HW2  364   2.293   0.955   0.509  0.0183 -0.2324 -0.6401
  184SOL     OW  365   1.848   0.779   2.306  0.4545 -0.4373  0.4544
  184SOL    HW1  366   1.780   0.825   2.356 -1.3616 -3.5564  1.1108
  184SOL    HW2  367   1.926   0.784   2.362 -0.7087 -1.2330  2.2331
  185SOL     OW  368   3.241   1.507   1.293 -0.7138 -0.3660 -0.2065
  185SOL    HW1  369   3.295   1.450   1.239  0.7197 -0.0251  0.8015
  185SOL    HW2  370   3.181   1.448   1.339 -0.9535 -0.7927 -1.0596
  186SOL     OW  371   1.841   1.831   0.411  0.1487  0.4099  0.2898
  186SOL    HW1  372   1.894   1.751   0.408 -0.5267 -0.0621  0.6576
  186SOL    HW2  373   1.783   1.819   0.486 -0.0232  1.2103  0.2949
  187SOL     OW  374   3.165   1.030   1.336 -0.5070  0.1300  0.0491
  187SOL    HW1  375   3.247   1.080   1.336  0.0130 -0.6560  1.4203
  187SOL    HW2  376   3.181   0.957   1.276 -1.3122  1.6042 -2.0561
  188SOL     OW  377   2.028   1.244   1.830 -0.8839 -0.3033 -0.4790
  188SOL    HW1  378   2.096   1.264   1.766  0.1391 -2.0525 -0.0159
  188SOL    HW2  379   1.977   1.173   1.789 -1.0164 -0.5573  0.1149
  189SOL     OW  380   0.571   0.367   1.909 -0.1234 -0.6218  0.1141
  189SOL    HW1  381   0.664   0.344   1.922  1.3613  3.2878 -1.8986
  189SOL    HW2  382   0.544   0.403   1.994 -0.2496 -2.8051  1.0608
  190SOL     OW  383   0.137   1.591   3.146  0.6707 -0.1918 -0.4026
  190SOL    HW1  384   0.068   1.656   3.161  0.5862 -0.6805  1.5410
  190SOL    HW2  385   0.208   1.641   3.106 -0.0383  0.7470 -0.5174
  191SOL     OW  386   2.002   2.436   1.707  0.0988  0.2801  0.2996
  191SOL    HW1  387   1.961   2.455   1.792  1.8485 -1.1060  1.5408
  191SOL    HW2  388   2.089   2.476   1.713  0.6670 -0.7999 -0.3572
  192SOL     OW  389   1.992   2.148   2.628  0.3126 -0.3087 -0.1655
  192SOL    HW1  390   1.914   2.146   2.683  0.3327 -1.8719 -0.1486
  192SOL    HW2  391   1.965   2.195   2.549  0.0781  1.3101  0.8247
  193SOL     OW  392   1.210   1.393   0.192 -0.1997  0.1382 -0.4345
  193SOL    HW1  393   1.295   1.427   0.220  1.0272 -1.1204 -2.4411
  193SOL    HW2  394   1.201   1.309   0.237  0.4554 -0.5444 -1.5421
  194SOL     OW  395   0.183   1.718   1.212  0.0140  0.2067  0.2025
  194SOL    HW1  396   0.202   1.626   1.230  2.1228  0.7023  0.8050
  194SOL    HW2  397   0.159   1.755   1.297 -2.9969 -0.1677 -0.3711
  195SOL     OW  398   0.817   0.599   0.700  0.4736  0.0361 -0.5523
  195SOL    HW1  399   0.812   0.662   0.772  0.6864  1.0522 -1.4112
  195SOL    HW2  400   0.733   0.553   0.704  0.4991  0.0360  0.3656
  196SOL     OW  401   0.489   2.943   2.129 -0.1703  0.2721  0.1459
  196SOL    HW1  402   0.442   2.953   2.046 -0.8224  0.9385  0.5847
  196SOL    HW2  403   0.580   2.964   2.108  0.1420 -1.8223 -0.8943
  197SOL     OW  404   2.972   2.900   0.254 -0.2987 -0.0261  0.2099
  197SOL    HW1  405   2.925   2.963   0.199 -0.4238  0.6505  1.0647
  197SOL    HW2  406   2.942   2.920   0.343  2.8093  1.6037  1.0418
  198SOL     OW  407   1.205   0.553   0.259  0.1258 -0.0089  0.4319
  198SOL    HW1  408   1.279   0.547   0.319  0.2668  0.4524  0.3108
  198SOL    HW2  409   1.160   0.469   0.268  2.1562 -1.4135 -1.4402
  199SOL     OW  410   0.120   2.994   1.641 -0.3655 -0.2576  0.5972
  199SOL    HW1  411   0.152   2.911   1.675 -0.5778 -1.0772 -1.1205
  199SOL    HW2  412   0.028   2.997   1.666 -0.9676 -1.6472 -1.2499
  200SOL     OW  413   1.307   1.077   2.102 -0.1436  0.1209 -0.3999
  200SOL    HW1  414   1.273   1.119   2.023  1.0348  0.2393 -0.8530
  200SOL    HW2  415   1.354   1.146   2.148 -0.0502 -0.1747 -0.0471
  201SOL     OW  416   0.204   1.695   1.928 -1.1220 -0.3203  0.3365
  201SOL    HW1  417   0.286   1.674   1.970 -1.1343 -0.8092  0.1163
  201SOL    HW2  418   0.228   1.758   1.859 -1.0260  0.0279  0.6806
  202SOL     OW  419   1.376   2.180   2.878  0.0409 -0.2802 -0.3931
  202SOL    HW1  420   1.467   2.209   2.889  0.1049 -0.5899 -0.1136
  202SOL    HW2  421   1.331   2.258   2.844  0.6029 -0.4010 -1.4566
  203SOL     OW  422   2.689   2.025   2.396  0.3770  0.4093 -0.4588
  203SOL    HW1  423   2.598   1.999   2.382  0.1479  1.1292 -0.3590
  203SOL    HW2  424   2.720   1.967   2.466  0.1799 -0.2372 -0.9002
  204SOL     OW  425   1.273   2.403   2.740 -0.3248 -0.1271  0.2818
  204SOL    HW1  426   1.250   2.413   2.648  0.0764  1.0667  0.2916
  204SOL    HW2  427   1.366   2.426   2.745 -0.6421  1.0998  1.1593
  205SOL     OW  428   2.414   2.993   3.242 -0.1499  0.0863  0.3390
  205SOL    HW1  429   2.452   3.051   3.308  1.1178 -0.3501  0.0244
  205SOL    HW2  430   2.349   3.047   3.197 -0.4316  0.6405  1.3709
  206SOL     OW  431   1.562   3.043   2.976  0.5803  0.1934 -0.4900
  206SOL    HW1  432   1.526   3.122   2.938  0.6799  0.0242 -0.9439
  206SOL    HW2  433   1.491   2.979   2.971  1.1750 -0.3694 -2.1079
  207SOL     OW  434   2.246   3.137   3.057 -0.0409  0.0416  0.8817
  207SOL    HW1  435   2.175   3.173   3.110  0.1362  1.1304  0.3882
  207SOL    HW2  436   2.205   3.116   2.973 -0.2715 -1.4814  1.3462
  208SOL     OW  437   0.745   2.540   1.971 -0.1818  0.0515 -0.3029
  208SOL    HW1  438   0.685   2.466   1.959  0.4780 -0.3908 -0.9472
  208SOL    HW2  439   0.795   2.544   1.889 -0.9182  1.8771 -0.7159
  209SOL     OW  440   0.544   0.877   3.022 -0.0691 -0.3608 -0.2652
  209SOL    HW1  441   0.464   0.830   3.001 -0.1438 -0.7574  0.8687
  209SOL    HW2  442   0.608   0.808   3.042 -0.1113  0.0008  1.1742
  210SOL     OW  443   2.284   2.881   2.329  0.0475 -0.1811  0.3117
  210SOL    HW1  444   2.297   2.786   2.337 -1.2464 -0.4165 -0.0835
  210SOL    HW2  445   2.370   2.915   2.305  0.6937 -1.1592  1.1359
  211SOL     OW  446   2.140   2.349   0.748  0.4146 -0.1169  0.4217
  211SOL    HW1  447   2.104   2.267   0.781  0.6447 -0.5645 -0.4324
  211SOL    HW2  448   2.121   2.348   0.654  1.8616  0.0592  0.1133
  212SOL     OW  449   2.367   0.365   1.930 -0.0186 -0.1771  0.0270
  212SOL    HW1  450   2.397   0.334   2.016  0.6597 -1.0334 -0.5019
  212SOL    HW2  451   2.319   0.445   1.949  0.9810  0.1919  1.1161
  213SOL     OW  452   0.235   0.429   3.098  0.2733 -0.0840  0.2635
  213SOL    HW1  453   0.226   0.410   3.192 -0.1592  2.2956  0.7605
  213SOL    HW2  454   0.148   0.409   3.062  0.7545 -2.0926  0.1029
  214SOL     OW  455   2.309   1.239   0.816 -0.6212 -0.2807  0.0288
  214SOL    HW1  456   2.280   1.175   0.751  1.6368 -1.6252  0.2701
  214SOL    HW2  457   2.384   1.198   0.859 -0.6799  1.4958  1.9738
  215SOL     OW  458   1.248   1.776   2.313  0.1905  0.4631  0.0022
  215SOL    HW1  459   1.311   1.806   2.378  0.0699 -0.4815  0.5698
  215SOL    HW2  460   1.164   1.771   2.360  0.1786 -0.5959 -0.0996
  216SOL     OW  461   3.381   1.319   1.141 -0.1213 -0.1936 -0.3071
  216SOL    HW1  462   3.430   1.342   1.062  0.2973  2.1890  0.5405
  216SOL    HW2  463   3.293   1.299   1.109  0.9273 -3.0347 -1.6956
  217SOL     OW  464   0.845   1.826   2.998  0.4690 -0.3696  0.0622
  217SOL    HW1  465   0.788   1.903   2.997 -0.7779 -1.2654 -0.2467
  217SOL    HW2  466   0.923   1.855   3.046  0.4672  1.3686 -0.9035
  218SOL     OW  467   2.535   0.026   2.600  0.0996 -0.1144 -0.2098
  218SOL    HW1  468   2.469   0.069   2.654 -0.8624  1.9631 -2.8017
  218SOL    HW2  469   2.495  -0.058   2.576  0.6323 -1.1693  2.3174
  219SOL     OW  470   2.129   1.139   0.388  0.6400 -0.2134 -0.7170
  219SOL    HW1  471   2.052   1.082   0.398  1.8075 -2.0345 -1.5505
  219SOL    HW2  472   2.184   1.119   0.463  0.8188  0.2494 -0.7229
  220SOL     OW  473   2.946   1.212   1.700  0.2225  0.0414 -0.0040
  220SOL    HW1  474   2.985   1.125   1.702 -0.8758 -0.4960  2.9089
  220SOL    HW2  475   2.875   1.206   1.637  0.4820 -1.0292 -0.1984
  221SOL     OW  476   3.302   0.126   3.216 -0.6126 -0.2440 -0.1956
  221SOL    HW1  477   3.227   0.171   3.177  0.3701  1.3832 -0.3292
  221SOL    HW2  478   3.355   0.099   3.141 -0.5053 -0.3619 -0.0765
  222SOL     OW  479   1.001   2.474   1.031  0.1762  0.3924 -0.3762
  222SOL    HW1  480   0.930   2.409   1.033  1.2766 -0.9062 -1.1927
  222SOL    HW2  481   0.992   2.516   0.945 -0.7638  1.6394  0.2995
  223SOL     OW  482   3.299   1.416   0.694  0.6030  0.0258  0.2879
  223SOL    HW1  483   3.250   1.333   0.696  0.2857  0.2211  1.3209
  223SOL    HW2  484   3.389   1.390   0.674  0.5897 -0.6230  1.0186
  224SOL     OW  485   0.646   1.480   0.607  0.0254 -0.1756 -0.1735
  224SOL    HW1  486   0.667   1.426   0.530 -0.5045 -2.6830  1.3189
  224SOL    HW2  487   0.569   1.530   0.581 -0.1167 -0.9443 -1.3022
  225SOL     OW  488   3.021   3.007   2.331  1.0045  0.1931 -0.2633
  225SOL    HW1  489   2.940   2.957   2.339  0.8738  0.4216 -0.1397
  225SOL    HW2  490   2.992   3.097   2.311  1.2241  0.3016 -0.1001
  226SOL     OW  491   0.051   2.887   1.099  0.2766  0.0805 -0.0445
  226SOL    HW1  492   0.024   2.923   1.183 -1.9985 -0.6203 -0.4103
  226SOL    HW2  493   0.055   2.962   1.040 -2.3362  0.1163 -0.2856
  227SOL     OW  494   0.308   2.966   1.427  0.0257 -0.4115 -0.0123
  227SOL    HW1  495   0.234   3.010   1.468  1.1202  0.6320  0.9375
  227SOL    HW2  496   0.372   2.956   1.498  1.5546  0.4750 -1.2158
  228SOL     OW  497   0.159   0.556   1.530 -0.4162 -0.1397  0.4032
  228SOL    HW1  498   0.097   0.495   1.570 -1.8161 -0.0367 -1.4457
  228SOL    HW2  499   0.106   0.606   1.467  0.9583  2.0441  0.8688
  229SOL     OW  500   0.620   1.863   0.117 -0.7496 -0.6415 -0.0855
  229SOL    HW1  501   0.550   1.867   0.183 -0.6677  0.4686 -0.0497
  229SOL    HW2  502   0.625   1.952   0.083  0.1496 -0.8933 -0.6230
  230SOL     OW  503   2.029   1.649   0.459  0.2762  0.3315 -0.3076
  230SOL    HW1  504   2.046   1.555   0.463  0.8398  0.4237 -0.3819
  230SOL    HW2  505   2.061   1.682   0.543 -2.2710  0.1210  0.8424
  231SOL     OW  506   0.252   3.302   1.027  0.0460  0.3612 -0.2140
  231SOL    HW1  507   0.227   3.387   0.992 -1.9677 -0.2184 -0.3057
  231SOL    HW2  508   0.248   3.313   1.122 -1.9570 -0.0476 -0.2097
  232SOL     OW  509   3.010   1.628   0.220  0.6926  0.0590  0.0145
  232SOL    HW1  510   2.987   1.710   0.262  3.6272  0.5203  0.9060
  232SOL    HW2  511   3.054   1.653   0.139  2.8907 -0.5126  0.9735
  233SOL     OW  512   2.394   1.440   1.992 -0.4178 -0.1545  0.3896
  233SOL    HW1  513   2.437   1.411   2.073 -1.0801 -3.6059 -0.3293
  233SOL    HW2  514   2.462   1.434   1.925 -0.2248  1.4034  0.4075
  234SOL     OW  515   2.994   3.044   0.465  0.2384  0.0972  0.2181
  234SOL    HW1  516   2.948   3.107   0.520  0.8376  1.3370 -0.6586
  234SOL    HW2  517   3.066   3.012   0.520  0.5418  0.9597  0.3342
  235SOL     OW  518   0.523   0.553   3.242 -0.0041 -0.5720 -0.3699
  235SOL    HW1  519   0.595   0.615   3.230 -1.3538  1.2425  0.2699
  235SOL    HW2  520   0.541   0.510   3.326 -0.2231  0.7444  0.3837
  236SOL     OW  521   1.398   1.131   2.838  0.1639  0.2637  0.5831
  236SOL    HW1  522   1.350   1.069   2.783  0.0504  1.0030 -0.1620
  236SOL    HW2  523   1.489   1.100   2.834  0.2854  0.7428 -0.6430
  237SOL     OW  524   3.082   2.684   1.713 -0.0854  0.0202  0.1487
  237SOL    HW1  525   2.994   2.711   1.737 -0.6795 -1.3698 -0.3203
  237SOL    HW2  526   3.071   2.642   1.627  1.1899  0.6661 -0.3527
  238SOL     OW  527   1.523   0.777   1.582  0.0618  0.1457 -0.0964
  238SOL    HW1  528   1.609   0.770   1.539 -0.5185  0.3321 -1.3392
  238SOL    HW2  529   1.462   0.740   1.518 -0.9164  0.9515  0.3459
  239SOL     OW  530   0.714   1.156   1.993 -0.4701  0.5065  0.1627
  239SOL    HW1  531   0.760   1.229   2.035  2.7116 -1.0135 -0.3500
  239SOL    HW2  532   0.698   1.186   1.904 -1.5414  1.4704  0.6606
  240SOL     OW  533   1.232   1.748   1.464  0.2270  0.6205 -0.0190
  240SOL    HW1  534   1.179   1.747   1.543 -0.6041  0.3728 -0.5715
  240SOL    HW2  535   1.185   1.693   1.402  1.7413 -0.6228 -0.1405
  241SOL     OW  536   0.132   2.185   1.254  0.1620  0.3076  0.3421
  241SOL    HW1  537   0.166   2.271   1.230 -0.4547  0.6055  0.5251
  241SOL    HW2  538   0.086   2.199   1.336  0.7549 -0.3686  0.8015
  242SOL     OW  539   1.670   2.783   0.975  0.2986 -0.9786 -0.3565
  242SOL    HW1  540   1.734   2.730   0.929  0.3559 -1.5011  0.3031
  242SOL    HW2  541   1.615   2.720   1.021  0.4742 -0.4760  0.5791
  243SOL     OW  542   1.162   0.073   2.504 -0.4065  1.1099  0.0821
  243SOL    HW1  543   1.079   0.067   2.550  0.1752  0.9879  1.1482
  243SOL    HW2  544   1.155   0.010   2.433 -0.3018 -0.8193  1.6953
  244SOL     OW  545   0.592   3.140   2.745  0.6885 -0.1507  0.2887
  244SOL    HW1  546   0.648   3.196   2.690 -1.3533  1.0826 -0.6426
  244SOL    HW2  547   0.535   3.094   2.683  0.7073 -1.4667  1.2055
  245SOL     OW  548   2.936   0.005   3.184  0.2247 -0.2337  0.4953
  245SOL    HW1  549   2.920   0.026   3.276 -0.4991 -0.2367  0.3782
  245SOL    HW2  550   3.018  -0.045   3.185  0.5796  0.3325  1.0580
  246SOL     OW  551   0.980   2.811   1.252 -0.1438 -0.2341  0.1201
  246SOL    HW1  552   1.018   2.878   1.309  0.0163  0.6158 -0.9350
  246SOL    HW2  553   1.055   2.769   1.211 -0.2873  0.4439 -0.8622
  247SOL     OW  554   1.675   3.189   2.734  0.0758  0.2744  0.1079
  247SOL    HW1  555   1.746   3.221   2.678  0.1864  0.0606  0.1243
  247SOL    HW2  556   1.690   3.230   2.819  0.3510  0.0015  0.1939
  248SOL     OW  557   2.638   1.096   2.943  0.2114 -0.9268  0.0228
  248SOL    HW1  558   2.624   1.186   2.915  0.7608 -0.7504  0.3009
  248SOL    HW2  559   2.681   1.055   2.868  2.5515 -0.2069  0.8880
  249SOL     OW  560   0.667   1.505   1.938  0.4207  0.3192  0.1527
  249SOL    HW1  561   0.702   1.467   2.019  0.2595  0.7517  0.4363
  249SOL    HW2  562   0.582   1.541   1.964  0.7785  1.2906  0.0176
  250SOL     OW  563   1.554   2.034   3.046  0.4113  0.0401 -0.2855
  250SOL    HW1  564   1.478   2.055   2.991  0.5260  0.8837 -0.1430
  250SOL    HW2  565   1.518   1.980   3.117 -0.3773  1.7182  0.6465
  251SOL     OW  566   2.061   0.795   2.956  0.7246 -0.6260 -0.0763
  251SOL    HW1  567   2.017   0.835   3.030 -0.8985 -2.3050 -0.0672
  251SOL    HW2  568   2.152   0.785   2.985  0.9468  1.9096  0.3070
  252SOL     OW  569   0.775   1.543   0.850 -0.1427 -0.1643  0.0483
  252SOL    HW1  570   0.771   1.497   0.766 -2.0911  1.7190 -0.9946
  252SOL    HW2  571   0.780   1.474   0.915 -0.3633 -1.7575 -1.5480
  253SOL     OW  572   3.172   3.248   3.208 -0.1058 -0.2387 -0.2206
  253SOL    HW1  573   3.162   3.183   3.139  1.6391 -0.3397 -0.4168
  253SOL    HW2  574   3.244   3.304   3.179 -0.7632  1.0539  0.5139
  254SOL     OW  575   2.163   1.408   0.507 -0.5119  0.1857  0.4676
  254SOL    HW1  576   2.131   1.334   0.455 -1.4728 -0.5197  1.9867
  254SOL    HW2  577   2.251   1.382   0.535 -0.7250 -0.2707  0.7324
  255SOL     OW  578   0.515   0.072   0.022 -0.3879  0.1436  0.6476
  255SOL    HW1  579   0.530   0.133  -0.050  1.4636 -0.7386  0.2189
  255SOL    HW2  580   0.425   0.043   0.011 -0.5090  0.9388 -0.6051
  256SOL     OW  581   1.683   1.511   0.346 -0.0362  0.1182  0.3746
  256SOL    HW1  582   1.766   1.468   0.327  0.5625  1.6967 -0.7956
  256SOL    HW2  583   1.666   1.492   0.438  1.2776 -0.7675  0.4563
  257SOL     OW  584   2.664   0.509   1.625  0.1339  0.0207 -0.4649
  257SOL    HW1  585   2.666   0.544   1.714  1.5105 -0.3445 -0.3338
  257SOL    HW2  586   2.580   0.462   1.620 -0.9436  1.8162 -0.0880
  258SOL     OW  587   1.026   0.774   2.295 -0.3524 -0.1347  0.1752
  258SOL    HW1  588   0.933   0.794   2.306 -0.8981 -1.4899 -1.4855
  258SOL    HW2  589   1.065   0.856   2.264 -1.5559 -0.2188 -1.7208
  259SOL     OW  590   1.093   2.277   3.123 -0.0716  0.1140 -0.4735
  259SOL    HW1  591   1.142   2.264   3.204 -0.3879  0.4163 -0.2263
  259SOL    HW2  592   1.024   2.339   3.147  1.0054  1.7944 -1.4265
  260SOL     OW  593   1.571   1.408   1.678  0.0772 -0.5714  0.1590
  260SOL    HW1  594   1.580   1.332   1.736 -0.3201  0.2238  1.2978
  260SOL    HW2  595   1.657   1.449   1.679  0.0236 -0.4629  0.3214
  261SOL     OW  596   2.743   2.733   1.483  0.5012  0.2246  0.3077
  261SOL    HW1  597   2.766   2.642   1.502  0.2405  0.2889  0.9269
  261SOL    HW2  598   2.724   2.772   1.568 -1.6598  0.2530 -0.1215
  262SOL     OW  599   2.825   3.376   2.470  0.3940  0.0803 -0.4409
  262SOL    HW1  600   2.849   3.427   2.547  2.3047  0.3777 -1.1788
  262SOL    HW2  601   2.782   3.298   2.506  0.3980  0.6537  0.8746
  263SOL     OW  602   0.148   1.763   2.363  0.2507 -0.0334 -0.6232
  263SOL    HW1  603   0.163   1.853   2.333  1.0319  0.2289  0.4945
  263SOL    HW2  604   0.067   1.767   2.414 -0.6069 -0.3078 -1.9261
  264SOL     OW  605   2.118   1.884   2.224  0.3981 -0.5774 -0.0809
  264SOL    HW1  606   2.075   1.964   2.255 -0.0132 -1.8387  3.0483
  264SOL    HW2  607   2.047   1.822   2.209  0.8202 -1.2334  0.4996
  265SOL     OW  608   2.763   2.752   0.572 -0.6837 -0.1013 -0.5926
  265SOL    HW1  609   2.719   2.740   0.656 -1.3067  0.2318 -0.8633
  265SOL    HW2  610   2.779   2.846   0.566  0.8485 -0.3042 -0.1244
  266SOL     OW  611   2.300   0.935   3.222  0.5618  0.6312 -0.1084
  266SOL    HW1  612   2.232   0.996   3.195 -1.8560 -0.6412  2.5886
  266SOL    HW2  613   2.361   0.987   3.273 -0.4010  1.1799  0.5103
  267SOL     OW  614   0.816   0.451   2.563 -0.0014  0.7333 -0.0000
  267SOL    HW1  615   0.781   0.520   2.619 -1.5018  0.2842 -0.3533
  267SOL    HW2  616   0.893   0.419   2.610  0.3407  2.1866  0.4773
  268SOL     OW  617   1.638   0.819   1.226  0.5294  0.1559 -0.1608
  268SOL    HW1  618   1.643   0.905   1.267  1.6842  0.2592 -0.4825
  268SOL    HW2  619   1.609   0.761   1.297 -0.9728  0.8961 -0.1247
  269SOL     OW  620   2.490   3.022   2.781  0.6536  0.5674  0.4494
  269SOL    HW1  621   2.533   2.941   2.754  1.7496  1.5007 -0.6987
  269SOL    HW2  622   2.486   3.075   2.702 -1.4518  1.0659  0.8112
  270SOL     OW  623   1.901   2.579   3.231  0.0488 -0.1088 -0.3786
  270SOL    HW1  624   1.882   2.544   3.318  1.1009  2.3160  0.9344
  270SOL    HW2  625   1.968   2.521   3.196 -0.5465 -1.2485  0.3331
  271SOL     OW  626   3.314   0.394   3.131 -0.2839 -0.6106  0.2447
  271SOL    HW1  627   3.312   0.478   3.084 -1.4403 -0.7349  0.0440
  271SOL    HW2  628   3.263   0.334   3.075 -0.4290 -1.1415  0.9373
  272SOL     OW  629   3.379   2.421   0.213  0.3857 -0.1237 -0.0408
  272SOL    HW1  630   3.408   2.338   0.176  0.2711 -0.2765  0.2072
  272SOL    HW2  631   3.284   2.411   0.222  0.1193  0.6834 -1.6381
  273SOL     OW  632   1.061   1.472   2.329 -1.2199 -0.8935 -0.3850
  273SOL    HW1  633   1.049   1.555   2.376  1.4510 -0.7403  0.1549
  273SOL    HW2  634   1.065   1.406   2.398  1.0106 -0.8737 -0.4244
  274SOL     OW  635   3.259   2.908   0.233 -0.5217 -0.4558  0.1333
  274SOL    HW1  636   3.164   2.906   0.243 -0.4729  2.0234  1.9530
  274SOL    HW2  637   3.289   2.823   0.265 -2.1447 -1.8967 -1.8999
  275SOL     OW  638   0.613   2.688   2.175 -0.2115  0.5674  0.0933
  275SOL    HW1  639   0.671   2.649   2.110 -0.0739 -0.4518  0.8148
  275SOL    HW2  640   0.592   2.774   2.139  1.7814  0.9892 -0.1555
  276SOL     OW  641   0.817   2.301   2.744  0.1324  0.2382 -0.1926
  276SOL    HW1  642   0.847   2.330   2.658  0.3459  1.3644  0.2366
  276SOL    HW2  643   0.735   2.348   2.758  0.0531 -0.0079  0.1817
  277SOL     OW  644   0.767   0.689   1.430  0.0556 -0.0630 -0.2799
  277SOL    HW1  645   0.781   0.597   1.407  0.7601  0.1114 -0.5863
  277SOL    HW2  646   0.677   0.693   1.461  0.5226 -1.1885  1.3760
  278SOL     OW  647   2.987   0.924   3.148  0.0348 -0.6196 -0.0723
  278SOL    HW1  648   2.946   0.838   3.159  0.8337 -1.0299 -0.2535
  278SOL    HW2  649   3.054   0.910   3.082  1.1905 -0.2126  0.9767
  279SOL     OW  650   1.563   2.288   0.081 -0.2207  0.2387 -0.1377
  279SOL    HW1  651   1.639   2.343   0.104  2.2791 -2.9136 -0.0932
  279SOL    HW2  652   1.500   2.349   0.043  2.1275  3.1612  0.2588
  280SOL     OW  653   2.028   1.731   1.155 -0.2977 -0.0613 -0.3089
  280SOL    HW1  654   2.032   1.779   1.238 -0.2537  0.4644 -0.6131
  280SOL    HW2  655   2.113   1.688   1.149 -1.2569 -2.4111  1.2677
  281SOL     OW  656   0.374   2.514   2.185  0.3911  0.1273  0.3718
  281SOL    HW1  657   0.325   2.557   2.115 -1.9356  0.3567  2.0369
  281SOL    HW2  658   0.456   2.562   2.189 -0.2827  1.4552 -0.8065
  282SOL     OW  659   1.384   0.570   1.077  0.4080  0.1486 -0.0260
  282SOL    HW1  660   1.339   0.500   1.031  1.4196  0.1914 -1.1118
  282SOL    HW2  661   1.477   0.558   1.055  0.6142  1.7418 -0.1313
  283SOL     OW  662   1.818   1.508   1.132  0.1202 -0.4769  0.1302
  283SOL    HW1  663   1.804   1.415   1.154 -0.1005 -0.0760  1.8559
  283SOL    HW2  664   1.909   1.524   1.156  0.4189 -0.4336 -0.9794
  284SOL     OW  665   1.533   1.021   2.547  0.4726 -0.2936  0.5970
  284SOL    HW1  666   1.533   0.970   2.628  0.9437  1.6619  1.9051
  284SOL    HW2  667   1.440   1.029   2.524  0.0568  1.4991  2.5895
  285SOL     OW  668   3.106   3.205   0.895  0.4286 -0.3614 -0.0959
  285SOL    HW1  669   3.167   3.275   0.920  1.4316 -0.5879 -1.7264
  285SOL    HW2  670   3.042   3.202   0.966  0.6299  1.8888  0.2436
  286SOL     OW  671   3.057   2.020   3.295  0.1335 -0.1124  0.0101
  286SOL    HW1  672   2.987   2.077   3.327 -0.0424  0.7216 -1.7139
  286SOL    HW2  673   3.029   1.932   3.317 -1.4230  0.2179 -0.5503
  287SOL     OW  674   1.450   0.728   2.447 -0.2481  0.2389  0.2420
  287SOL    HW1  675   1.482   0.746   2.358 -0.1187  1.2164  0.4756
  287SOL    HW2  676   1.422   0.813   2.480  1.0809  0.1622  1.6892
  288SOL     OW  677   2.729   1.013   3.193 -1.0027 -0.0577  0.6362
  288SOL    HW1  678   2.686   1.050   3.116 -0.4899  0.8824  0.7810
  288SOL    HW2  679   2.814   0.982   3.160 -1.1083 -0.3990  0.6747
  289SOL     OW  680   3.271   1.213   3.181 -0.3374 -0.0830  0.1044
  289SOL    HW1  681   3.322   1.162   3.119  0.0447  1.2151 -0.6810
  289SOL    HW2  682   3.267   1.158   3.260 -0.2318 -1.4486 -0.8024
  290SOL     OW  683   0.234   0.693   2.824  0.3815  0.3087  0.5629
  290SOL    HW1  684   0.162   0.738   2.869  0.6107  0.7734  0.4684
  290SOL    HW2  685   0.289   0.658   2.894 -0.1071 -0.3381  0.6380
  291SOL     OW  686   3.285   1.686   0.672  0.2674 -0.4899 -0.7466
  291SOL    HW1  687   3.192   1.698   0.652  0.2938  0.1611 -0.5188
  291SOL    HW2  688   3.293   1.594   0.696 -0.5343 -0.3205  0.2830
  292SOL     OW  689   3.209   0.273   2.112 -0.1372  0.3529  0.2911
  292SOL    HW1  690   3.245   0.359   2.093 -0.0827  0.2347 -0.1533
  292SOL    HW2  691   3.247   0.248   2.196  2.0341 -0.4271 -0.8503
  293SOL     OW  692   1.467   3.158   0.144 -0.5642  0.3872  0.2329
  293SOL    HW1  693   1.557   3.150   0.176 -0.6180 -0.6585  0.1862
  293SOL    HW2  694   1.447   3.251   0.150  1.3597  1.0712 -1.9768
  294SOL     OW  695   0.527   2.167   0.888 -0.0322  0.6713  0.4942
  294SOL    HW1  696   0.454   2.178   0.827 -0.1457  1.7202  0.8044
  294SOL    HW2  697   0.486   2.140   0.970  0.1478 -1.0840  0.0616
  295SOL     OW  698   0.740   1.959   1.428 -0.1778 -0.2244 -0.0823
  295SOL    HW1  699   0.662   1.903   1.421 -0.0266 -0.6000  1.0319
  295SOL    HW2  700   0.777   1.938   1.514  0.7467  0.4843 -0.2914
  296SOL     OW  701   2.458   2.654   1.226  0.8549 -0.1739  0.0021
  296SOL    HW1  702   2.371   2.659   1.187  0.7506 -0.5845  0.1737
  296SOL    HW2  703   2.465   2.731   1.281  0.4550 -0.3350  0.2784
  297SOL     OW  704   1.853   1.215   2.259  0.6506  0.1293 -0.1980
  297SOL    HW1  705   1.780   1.268   2.227  0.9404  0.5319 -0.1968
  297SOL    HW2  706   1.819   1.125   2.258  0.8127  0.0560 -2.1032
  298SOL     OW  707   3.347   0.863   0.187  0.2744 -0.6500 -0.0465
  298SOL    HW1  708   3.323   0.787   0.133 -0.7700  0.2369 -0.8720
  298SOL    HW2  709   3.341   0.831   0.277 -0.6618 -1.4111 -0.3628
  299SOL     OW  710   2.665   0.170   1.742  0.6370 -0.1541 -0.2848
  299SOL    HW1  711   2.704   0.185   1.656 -0.0872  0.2206 -0.5566
  299SOL    HW2  712   2.574   0.198   1.732  0.6023  0.0943  0.6636
  300SOL     OW  713   2.854   1.347   2.314 -0.1203  0.2436 -0.2877
  300SOL    HW1  714   2.892   1.428   2.280  0.0267  0.3365  0.0965
  300SOL    HW2  715   2.916   1.279   2.288  0.9619  0.5325  1.3667
  301SOL     OW  716   0.741   0.929   2.748 -0.0331  0.3540  0.5766
  301SOL    HW1  717   0.652   0.963   2.735  0.0789  0.0274 -1.5231
  301SOL    HW2  718   0.798   1.004   2.729  0.1509  0.1631  0.3654
  302SOL     OW  719   1.116   0.141   1.323  0.5011 -0.2300 -0.1311
  302SOL    HW1  720   1.074   0.074   1.378  0.9998 -1.2971 -1.0015
  302SOL    HW2  721   1.165   0.091   1.258  0.8817  1.0021 -0.8271
  303SOL     OW  722   0.619   2.654   2.522  0.6097  0.2743  0.1060
  303SOL    HW1  723   0.556   2.592   2.486  0.7574  0.6010 -0.7322
  303SOL    HW2  724   0.704   2.612   2.511  0.7640  0.8423 -0.9666
  304SOL     OW  725   0.617   2.831   0.608  0.5844 -0.4634 -0.0932
  304SOL    HW1  726   0.666   2.750   0.621  0.4445 -0.3953  0.9369
  304SOL    HW2  727   0.660   2.895   0.665  1.7285  0.6664 -2.1133
  305SOL     OW  728   0.878   0.238   2.352  0.6464  0.0429 -0.2532
  305SOL    HW1  729   0.883   0.323   2.397  1.2311 -0.8083  1.3468
  305SOL    HW2  730   0.910   0.175   2.416 -0.1102 -1.4482 -1.2944
  306SOL     OW  731   2.049   0.503   2.317 -0.5363  0.0155 -0.4209
  306SOL    HW1  732   2.000   0.471   2.242 -0.4922  0.6618 -0.7261
  306SOL    HW2  733   2.012   0.455   2.392 -2.6962  1.5649 -0.4142
  307SOL     OW  734   2.186   0.114   0.041  0.1655  0.5881 -0.3351
  307SOL    HW1  735   2.272   0.130   0.081  1.0008  0.1284 -1.8794
  307SOL    HW2  736   2.164   0.196  -0.003  0.6199  0.1982 -1.3326
  308SOL     OW  737   2.884   1.748   1.534  0.6602 -0.2981 -0.0247
  308SOL    HW1  738   2.853   1.661   1.557 -1.1482 -0.4452 -2.5171
  308SOL    HW2  739   2.877   1.799   1.615 -1.0665 -1.7555  0.7973
  309SOL     OW  740   1.157   2.381   0.275  0.0912 -0.0767 -0.4012
  309SOL    HW1  741   1.127   2.301   0.319 -3.2895  1.3862  0.2525
  309SOL    HW2  742   1.190   2.436   0.347  0.2244  0.0053 -0.5254
  310SOL     OW  743   2.593   2.160   0.540  0.4927  0.2047  0.3298
  310SOL    HW1  744   2.539   2.082   0.533 -0.8563  1.1327 -0.0644
  310SOL    HW2  745   2.616   2.183   0.450 -0.5063  1.1768  0.3076
  311SOL     OW  746   2.778   0.916   1.826  0.0183 -0.0960  0.6584
  311SOL    HW1  747   2.691   0.892   1.794 -0.4282  3.5673 -1.3659
  311SOL    HW2  748   2.834   0.843   1.798 -1.9519 -1.3682 -0.2166
  312SOL     OW  749   2.205   0.756   1.824  0.6206 -0.3217 -0.4291
  312SOL    HW1  750   2.297   0.740   1.845  0.0273 -1.5295  1.5278
  312SOL    HW2  751   2.158   0.735   1.905 -1.5474 -1.6783 -1.9236
  313SOL     OW  752   0.693   0.063   2.199  0.1741 -0.0794 -0.1202
  313SOL    HW1  753   0.608   0.104   2.214 -0.7871 -1.5540 -1.2607
  313SOL    HW2  754   0.756   0.124   2.237 -1.4077  0.8286  1.1811
  314SOL     OW  755   0.747   2.017   2.729 -0.2038 -0.5805  0.5982
  314SOL    HW1  756   0.800   1.992   2.653 -0.0702 -0.7787  0.7538
  314SOL    HW2  757   0.779   2.103   2.754 -0.5969 -0.2946  0.1175
  315SOL     OW  758   2.944   3.161   2.812  0.2253  0.2584 -0.2754
  315SOL    HW1  759   2.907   3.095   2.870  2.3673 -1.4978 -0.7725
  315SOL    HW2  760   2.894   3.153   2.731 -0.3553  0.1714  0.0812
  316SOL     OW  761   1.047   2.570   0.107 -0.0883  0.1618 -0.4650
  316SOL    HW1  762   1.025   2.615   0.189 -0.6907 -1.0967  0.0917
  316SOL    HW2  763   1.101   2.495   0.134  1.4129  0.8393 -1.4266
  317SOL     OW  764   0.774   0.507   2.912  0.8408  0.0703  0.1237
  317SOL    HW1  765   0.707   0.506   2.844  0.4645  0.2930  0.4897
  317SOL    HW2  766   0.811   0.595   2.907  2.3884 -0.6011 -1.3091
  318SOL     OW  767   1.547   2.027   0.116  0.4834  0.1769 -0.0183
  318SOL    HW1  768   1.569   2.120   0.104 -2.1021  0.7427 -0.8450
  318SOL    HW2  769   1.500   2.003   0.037 -1.6310 -0.9530  1.5088
  319SOL     OW  770   0.191   2.427   0.661  0.1014 -0.0097  0.0867
  319SOL    HW1  771   0.228   2.423   0.573  0.4912 -0.4421  0.2688
  319SOL    HW2  772   0.245   2.492   0.707  0.9197 -0.9504  0.4794
  320SOL     OW  773   2.100   1.997   0.810  0.2138  0.1560 -0.2108
  320SOL    HW1  774   2.136   2.042   0.886 -1.7658 -0.8615  1.4183
  320SOL    HW2  775   2.019   2.044   0.790 -1.0547 -1.6242  0.5252
  321SOL     OW  776   0.434   2.166   0.524  0.1052 -0.2452 -0.0582
  321SOL    HW1  777   0.428   2.256   0.495 -0.8588  0.3479  1.8285
  321SOL    HW2  778   0.351   2.126   0.499  0.2371 -0.4141 -0.2354
  322SOL     OW  779   3.166   1.033   1.704 -0.5554  0.1593 -0.2177
  322SOL    HW1  780   3.231   1.094   1.738 -1.4356  1.2321 -0.3840
  322SOL    HW2  781   3.183   1.028   1.610 -0.9936  0.8009 -0.3345
  323SOL     OW  782   2.080   2.446   1.014 -0.0269 -0.2533 -0.0980
  323SOL    HW1  783   2.060   2.389   1.089 -0.5252 -1.3235 -1.0283
  323SOL    HW2  784   2.063   2.392   0.937  2.1938  0.2386 -1.0041
  324SOL     OW  785   1.396   0.722   1.349  0.0629  0.0545  0.0201
  324SOL    HW1  786   1.370   0.682   1.266 -0.0387  0.2032 -0.0199
  324SOL    HW2  787   1.317   0.721   1.403 -0.8930  3.0840 -1.0871
  325SOL     OW  788   2.679   1.846   2.618 -0.0423 -0.2138 -0.4096
  325SOL    HW1  789   2.760   1.827   2.665 -1.0234  1.7714  2.3194
  325SOL    HW2  790   2.610   1.811   2.674 -1.1946  0.2683 -1.4914
  326SOL     OW  791   3.156   3.265   2.057  0.2414  0.3115  0.2507
  326SOL    HW1  792   3.201   3.319   1.993 -0.7566 -1.2670 -1.8976
  326SOL    HW2  793   3.219   3.195   2.078  0.1757  0.2278  0.1695
  327SOL     OW  794   2.453   2.974   1.192  0.0977  0.0523  0.1784
  327SOL    HW1  795   2.383   3.022   1.147  0.5064 -0.2448 -0.7861
  327SOL    HW2  796   2.411   2.941   1.272 -0.6733  0.4882 -0.0373
  328SOL     OW  797   1.752   3.044   0.388  0.1524  0.1987 -0.0471
  328SOL    HW1  798   1.762   3.137   0.366  4.2433 -0.4406 -1.6606
  328SOL    HW2  799   1.764   2.998   0.306 -0.6601 -1.8612  0.9129
  329SOL     OW  800   0.198   2.314   2.289  0.0273  0.2166 -0.3378
  329SOL    HW1  801   0.145   2.372   2.344 -1.1820 -1.4055  0.2632
  329SOL    HW2  802   0.260   2.373   2.246 -1.7040  2.1007 -0.4396
  330SOL     OW  803   2.494   2.714   0.094 -0.1200 -0.3012 -0.3512
  330SOL    HW1  804   2.514   2.722   0.187 -0.7296 -1.1673 -0.1320
  330SOL    HW2  805   2.555   2.647   0.061  1.0231  0.9700 -0.8878
  331SOL     OW  806   2.548   2.025   1.829 -0.6536 -0.2219  0.1928
  331SOL    HW1  807   2.474   2.037   1.889  0.3921 -1.4447  1.8266
  331SOL    HW2  808   2.514   2.050   1.743 -3.2156 -1.4988  0.7347
  332SOL     OW  809   1.364   2.886   1.756  0.0408 -0.0446  0.1220
  332SOL    HW1  810   1.377   2.975   1.790  0.1079 -0.0893  0.2124
  332SOL    HW2  811   1.313   2.842   1.824  0.0072 -0.0756  0.0770
  333SOL     OW  812   2.236   0.279   1.009  0.9058  0.5200  0.0342
  333SOL    HW1  813   2.318   0.231   0.994  0.6817  0.2378 -0.3068
  333SOL    HW2  814   2.256   0.338   1.082  1.3465  0.2943  0.1016
  334SOL     OW  815   0.247   0.870   1.119 -0.3600 -0.5100  0.4187
  334SOL    HW1  816   0.186   0.890   1.190 -0.4254 -0.0011  0.2224
  334SOL    HW2  817   0.330   0.906   1.148 -0.7027  0.9923 -0.3802
  335SOL     OW  818   1.600   2.585   2.410  0.0901 -0.1246  0.5137
  335SOL    HW1  819   1.585   2.491   2.406 -0.3749 -0.0296 -0.0127
  335SOL    HW2  820   1.692   2.593   2.434  0.3629 -0.7160 -0.2872
  336SOL     OW  821   0.512   0.145   1.155  0.0074 -0.5471 -0.9249
  336SOL    HW1  822   0.419   0.137   1.179  1.1089  0.8110  5.4156
  336SOL    HW2  823   0.516   0.224   1.101 -2.4448 -0.3446 -0.9214
  337SOL     OW  824   0.143   0.452   1.041  0.1371 -0.0012  0.2118
  337SOL    HW1  825   0.192   0.500   1.107 -1.3534  0.8474  0.7546
  337SOL    HW2  826   0.091   0.519   0.997 -0.3678 -0.8317 -0.4964
  338SOL     OW  827   3.295   0.002   0.106  0.0095 -0.0569  0.0451
  338SOL    HW1  828   3.376   0.033   0.147 -0.7505  1.2890  0.6123
  338SOL    HW2  829   3.310   0.014   0.012  1.1899 -1.7304 -0.0404
  339SOL     OW  830   1.361   0.577   0.499  0.2286  0.2422 -0.3681
  339SOL    HW1  831   1.345   0.632   0.576  1.9500  0.3573 -0.0477
  339SOL    HW2  832   1.280   0.527   0.488 -1.2076  2.4661 -0.3817
  340SOL     OW  833   1.238   1.821   2.687 -0.3548  0.2020 -0.4441
  340SOL    HW1  834   1.255   1.871   2.608  0.2775 -0.6664 -0.8719
  340SOL    HW2  835   1.275   1.735   2.670  1.0013  0.3892  1.3015
  341SOL     OW  836   1.421   0.101   1.727 -0.3889 -0.5602  0.1358
  341SOL    HW1  837   1.370   0.176   1.697 -0.6008 -0.6478  0.2748
  341SOL    HW2  838   1.509   0.117   1.693 -0.2516  0.1177  0.7726
  342SOL     OW  839   0.648   0.136   2.950  0.2098 -0.3249  0.2580
  342SOL    HW1  840   0.667   0.152   2.857 -0.9041 -0.2680  0.0315
  342SOL    HW2  841   0.714   0.072   2.976  0.9232  0.1149 -0.4078
  343SOL     OW  842   3.293   2.932   0.563  0.1899 -0.3158  0.0703
  343SOL    HW1  843   3.268   2.881   0.485 -0.5834 -0.1375  0.1952
  343SOL    HW2  844   3.335   2.869   0.620 -1.0625 -0.9120  0.3695
  344SOL     OW  845   2.950   2.827   2.824  0.0036  0.3916 -0.0811
  344SOL    HW1  846   3.039   2.813   2.793  0.4341 -0.3435  1.4303
  344SOL    HW2  847   2.959   2.887   2.898 -0.8683  1.0004 -0.4396
  345SOL     OW  848   1.520   2.598   1.128  0.1098  0.0389  0.7602
  345SOL    HW1  849   1.476   2.530   1.078  2.0760 -0.6737 -0.1242
  345SOL    HW2  850   1.516   2.569   1.219  1.8101 -1.8606  0.2944
  346SOL     OW  851   1.636   3.063   0.916 -0.3107  0.1145  0.0165
  346SOL    HW1  852   1.690   3.081   0.839 -0.0566  1.1440  0.4200
  346SOL    HW2  853   1.686   2.997   0.965  0.1196  0.3654 -0.0815
  347SOL     OW  854   2.271   0.640   2.096  0.5392 -0.0949  0.8317
  347SOL    HW1  855   2.230   0.555   2.084  0.8551 -0.2769  1.0153
  347SOL    HW2  856   2.211   0.689   2.152  0.2073 -0.0857  0.4710
  348SOL     OW  857   2.865   0.232   0.433 -0.4049  0.2101  0.4518
  348SOL    HW1  858   2.919   0.289   0.488  1.0080  0.6540 -1.2765
  348SOL    HW2  859   2.854   0.282   0.352 -3.8159  0.2965  0.8287
  349SOL     OW  860   1.073   1.414   2.783 -0.1841 -0.1145 -0.1381
  349SOL    HW1  861   1.069   1.392   2.876  0.2597 -1.3525 -0.4004
  349SOL    HW2  862   1.043   1.505   2.779 -0.9606 -0.2899  1.1227
  350SOL     OW  863   1.453   1.380   2.520 -0.4191  0.1498 -0.1578
  350SOL    HW1  864   1.542   1.385   2.486 -0.9702  0.7865 -1.5871
  350SOL    HW2  865   1.463   1.351   2.611  1.2232  0.0917 -0.3374
  351SOL     OW  866   2.710   1.961   2.110 -0.0296  0.4064  0.0086
  351SOL    HW1  867   2.730   1.984   2.201  0.3375  0.0202  0.0280
  351SOL    HW2  868   2.793   1.928   2.075 -0.6906 -1.5580  0.1823
  352SOL     OW  869   0.703   2.788   2.891 -0.1187  0.2305 -0.3358
  352SOL    HW1  870   0.673   2.716   2.946 -0.4798  0.2732 -0.4747
  352SOL    HW2  871   0.646   2.861   2.914 -0.0713  0.3342 -0.5475
  353SOL     OW  872   0.581   0.967   0.984 -0.2068  0.0146  0.5609
  353SOL    HW1  873   0.536   0.969   1.069  1.0706  0.9803  1.2385
  353SOL    HW2  874   0.571   1.055   0.949 -1.7110 -0.6612 -0.8809
  354SOL     OW  875   2.942   0.442   2.948 -0.2386  0.2257 -0.0178
  354SOL    HW1  876   2.939   0.503   3.022 -0.5699 -0.0024  0.1604
  354SOL    HW2  877   2.917   0.495   2.873  1.8375  0.8970 -0.2868
  355SOL     OW  878   1.281   2.052   1.953  0.0775  0.4908 -0.3468
  355SOL    HW1  879   1.271   1.959   1.976  1.1192 -0.2595 -2.6400
  355SOL    HW2  880   1.309   2.094   2.035 -0.3727 -1.2128  0.7313
  356SOL     OW  881   0.752   0.754   0.964 -0.7498  0.4532  0.0023
  356SOL    HW1  882   0.690   0.821   0.938 -0.5167  1.3587  1.6390
  356SOL    HW2  883   0.711   0.712   1.040  0.2037  0.4447  0.5316
  357SOL     OW  884   2.367   1.083   2.870  0.2436 -0.1783  0.6614
  357SOL    HW1  885   2.442   1.109   2.923  0.0696 -0.9476  1.3203
  357SOL    HW2  886   2.368   0.987   2.873 -0.3407 -0.2118  0.0736
  358SOL     OW  887   1.909   3.210   2.488 -0.1923 -0.0770  0.4459
  358SOL    HW1  888   1.947   3.138   2.437 -0.2344  0.3827 -0.2593
  358SOL    HW2  889   1.965   3.217   2.565  2.0673  1.4306 -1.1787
  359SOL     OW  890   1.015   3.002   2.389 -0.0419 -0.3390  0.3126
  359SOL    HW1  891   1.067   3.051   2.453  0.1483 -0.0514 -0.0563
  359SOL    HW2  892   0.961   2.943   2.442  0.3907 -0.3801  0.7180
  360SOL     OW  893   0.393   2.395   1.037  0.4230 -1.0949  0.4112
  360SOL    HW1  894   0.357   2.359   0.956  0.0633 -0.1110  0.1271
  360SOL    HW2  895   0.388   2.322   1.100 -1.5099 -1.1699  0.2176
  361SOL     OW  896   0.941   0.812   1.247 -0.6833 -0.3719  0.0407
  361SOL    HW1  897   0.896   0.775   1.323 -1.1474 -1.4380 -0.7156
  361SOL    HW2  898   0.984   0.737   1.206  1.6669  0.5902  0.6187
  362SOL     OW  899   2.965   2.475   2.802 -0.7119  0.3345  0.1930
  362SOL    HW1  900   3.060   2.481   2.816 -0.8759  0.0082  1.5525
  362SOL    HW2  901   2.928   2.545   2.857 -1.2707  0.3849 -0.2389
  363SOL     OW  902   1.689   2.245   3.198 -0.3531 -0.1044 -0.2713
  363SOL    HW1  903   1.646   2.311   3.253  0.0500  0.2371 -0.3611
  363SOL    HW2  904   1.616   2.200   3.154 -0.6492  0.0119  0.0976
  364SOL     OW  905   1.193   2.748   2.488 -0.5785  0.4188 -0.2151
  364SOL    HW1  906   1.213   2.804   2.564  0.4981  0.7819 -0.7393
  364SOL    HW2  907   1.268   2.760   2.429  0.4107 -2.6495  0.2414
  365SOL     OW  908   1.443   1.935   1.638 -0.2487 -0.0272  0.2171
  365SOL    HW1  909   1.356   1.973   1.654 -0.4276 -0.7824  1.1268
  365SOL    HW2  910   1.427   1.869   1.571  0.0283  1.3086 -1.2208
  366SOL     OW  911   2.009   2.819   0.613  0.3565 -0.3696 -0.1960
  366SOL    HW1  912   1.986   2.788   0.525 -0.2997  0.9398 -0.5277
  366SOL    HW2  913   2.083   2.879   0.598 -0.2133  0.4073  0.0299
  367SOL     OW  914   2.093   0.900   0.067 -0.0484  0.4553 -0.5875
  367SOL    HW1  915   2.101   0.829   0.002  0.0690  1.5820 -1.8470
  367SOL    HW2  916   2.001   0.928   0.060 -0.4852 -0.4995  0.9406
  368SOL     OW  917   2.512   2.458   1.414  0.1023  0.5335 -0.2222
  368SOL    HW1  918   2.473   2.495   1.493 -0.1238 -1.3097  0.5742
  368SOL    HW2  919   2.493   2.522   1.345 -1.9010  1.0023  0.7000
  369SOL     OW  920   3.284   1.340   2.311 -0.0785  0.1035  0.2678
  369SOL    HW1  921   3.292   1.255   2.268  0.0514  0.3532 -0.2104
  369SOL    HW2  922   3.371   1.380   2.304 -0.3872  0.6993 -0.4404
  370SOL     OW  923   1.518   2.328   1.592 -0.1476  0.3416 -0.0417
  370SOL    HW1  924   1.503   2.326   1.498 -0.8512  1.5717  0.0256
  370SOL    HW2  925   1.431   2.328   1.631  0.1137 -2.0522  0.7077
  371SOL     OW  926   2.401   0.768   3.036  0.5917  0.6480  0.3038
  371SOL    HW1  927   2.368   0.836   3.095 -2.0743  0.3394 -0.6682
  371SOL    HW2  928   2.385   0.686   3.082  0.2153  0.5009 -0.0835
  372SOL     OW  929   0.715   3.338   1.677 -0.3088 -0.2136  0.7106
  372SOL    HW1  930   0.736   3.245   1.672  2.2930  0.2770  1.1874
  372SOL    HW2  931   0.677   3.350   1.764  1.0923 -0.5531  1.3880
  373SOL     OW  932   2.814   2.806   1.787  0.0309  0.5310 -0.1796
  373SOL    HW1  933   2.803   2.737   1.852  1.1077 -0.4228 -0.9614
  373SOL    HW2  934   2.867   2.873   1.831  1.2905 -0.3902 -0.2320
  374SOL     OW  935   2.815   1.193   2.561 -0.1808  0.1923 -0.1409
  374SOL    HW1  936   2.888   1.190   2.623 -0.2606 -1.4720 -0.0819
  374SOL    HW2  937   2.850   1.236   2.483  0.5738  0.2609  0.2327
  375SOL     OW  938   0.595   1.553   0.273  0.4908  0.0804  0.1263
  375SOL    HW1  939   0.599   1.571   0.179 -1.2044 -1.5930 -0.3322
  375SOL    HW2  940   0.666   1.490   0.288  2.0841  1.8666  0.4234
  376SOL     OW  941   2.572   2.687   0.367 -0.4126 -0.1183 -0.2261
  376SOL    HW1  942   2.503   2.691   0.432  1.1092 -0.1062  1.4631
  376SOL    HW2  943   2.653   2.681   0.418  0.7537 -1.7604 -2.1031
  377SOL     OW  944   1.457   0.137   0.133  0.3236  0.5985  0.1087
  377SOL    HW1  945   1.429   0.177   0.051 -0.7642 -2.6067 -1.2429
  377SOL    HW2  946   1.538   0.090   0.112 -1.0056 -1.9335  0.1954
  378SOL     OW  947   2.925   1.570   2.187 -0.6249 -0.3353 -0.0714
  378SOL    HW1  948   2.980   1.553   2.110 -0.8209  1.0292 -0.5394
  378SOL    HW2  949   2.886   1.656   2.170 -2.4081 -0.9816  0.5503
  379SOL     OW  950   0.994   0.346   3.006 -0.1851  0.2836 -0.4295
  379SOL    HW1  951   0.924   0.373   3.064  0.1143 -0.2421  0.1881
  379SOL    HW2  952   0.976   0.391   2.923 -0.3132  1.4794  0.2223
  380SOL     OW  953   3.298   2.431   2.035 -0.0009  0.8290  0.3677
  380SOL    HW1  954   3.302   2.347   2.081 -2.2048  0.1110 -0.6015
  380SOL    HW2  955   3.360   2.422   1.963 -1.0811 -0.5274 -0.4583
  381SOL     OW  956   0.823   1.744   2.022  0.5214  0.0620  0.5783
  381SOL    HW1  957   0.740   1.698   2.009  0.4903  0.6157 -1.5565
  381SOL    HW2  958   0.889   1.686   1.984  1.0712 -0.1212  1.7618
  382SOL     OW  959   0.940   1.527   0.202  0.2482 -0.2777 -0.5980
  382SOL    HW1  960   0.995   1.450   0.215  0.1015 -0.1379  0.9705
  382SOL    HW2  961   0.924   1.561   0.290 -2.5380 -0.4437 -0.9436
  383SOL     OW  962   2.319   0.474   1.197 -0.2549 -0.7318 -0.0643
  383SOL    HW1  963   2.229   0.509   1.199 -0.5017 -1.3968  1.0834
  383SOL    HW2  964   2.375   0.552   1.199 -0.7408 -0.1702 -2.9020
  384SOL     OW  965   2.046   1.505   0.826 -0.2417  0.2890 -0.3566
  384SOL    HW1  966   2.067   1.587   0.782  1.1439  0.0352 -0.2385
  384SOL    HW2  967   2.120   1.448   0.806  0.3649  0.0832  2.0812
  385SOL     OW  968   0.610   0.697   1.189 -0.0127  0.1226 -0.8666
  385SOL    HW1  969   0.521   0.668   1.169 -0.8214  0.4851  1.8488
  385SOL    HW2  970   0.599   0.783   1.230  1.6126  0.2576 -0.6313
  386SOL     OW  971   0.158   2.791   2.105 -0.0237 -0.3114 -0.1449
  386SOL    HW1  972   0.171   2.870   2.158  1.8341 -1.2621  0.9516
  386SOL    HW2  973   0.087   2.744   2.149  0.3240 -0.2595  0.4883
  387SOL     OW  974   0.720   2.450   1.548  0.6043 -0.2377 -0.0103
  387SOL    HW1  975   0.715   2.464   1.454  0.5636 -1.6383 -0.2364
  387SOL    HW2  976   0.749   2.359   1.558  1.7212  0.2243  1.3288
  388SOL     OW  977   2.654   0.268   2.965  0.0504 -0.2493  0.3398
  388SOL    HW1  978   2.627   0.189   2.918 -2.3399 -0.3724  1.7414
  388SOL    HW2  979   2.637   0.339   2.903  0.4058 -0.6835 -0.2635
  389SOL     OW  980   2.322   1.884   0.191 -0.3156 -0.0360  0.8133
  389SOL    HW1  981   2.346   1.895   0.098 -0.2713  0.9540  0.9242
  389SOL    HW2  982   2.251   1.820   0.190  0.0356 -0.4256  0.1451
  390SOL     OW  983   1.633   0.663   2.680 -0.1312 -0.0302  0.3762
  390SOL    HW1  984   1.603   0.704   2.761 -2.0875 -1.7064  0.5833
  390SOL    HW2  985   1.558   0.670   2.621  0.7567 -0.1554 -0.7900
  391SOL     OW  986   2.138   0.764   2.315 -0.1535 -0.2247 -0.3881
  391SOL    HW1  987   2.200   0.784   2.385 -0.8792 -0.6642  0.3859
  391SOL    HW2  988   2.097   0.682   2.341 -2.1507  0.7964 -0.1137
  392SOL     OW  989   1.819   1.898   3.018  0.2318 -0.0744  0.4399
  392SOL    HW1  990   1.748   1.950   3.055  0.7803 -0.1325  1.5992
  392SOL    HW2  991   1.811   1.912   2.923 -1.0381  0.2742  0.5798
  393SOL     OW  992   0.459   0.538   0.987 -0.6635  0.3232 -0.2656
  393SOL    HW1  993   0.528   0.480   1.020  0.3875  1.5311 -0.2532
  393SOL    HW2  994   0.379   0.507   1.030  0.0743 -0.3331  0.6892
  394SOL     OW  995   0.538   1.794   2.284  0.3160 -0.6044  0.3366
  394SOL    HW1  996   0.495   1.879   2.278 -0.0571 -0.8220 -0.2183
  394SOL    HW2  997   0.628   1.809   2.256 -0.0889 -0.6282 -1.0544
  395SOL     OW  998   0.975   1.679   0.451 -0.1974  0.3738 -0.3319
  395SOL    HW1  999   0.989   1.699   0.544  0.4130 -2.4940  0.2914
  395SOL    HW2 1000   0.885   1.709   0.433 -0.3656  0.8701  1.2114
  396SOL     OW 1001   2.160   1.165   0.040  0.0346  0.4408  0.0580
  396SOL    HW1 1002   2.254   1.154   0.024 -0.3725  0.2986 -2.8050
  396SOL    HW2 1003   2.126   1.076   0.047  0.2537  0.4930  2.6395
  397SOL     OW 1004   0.275   2.975   2.301  0.1747 -0.2374 -0.2110
  397SOL    HW1 1005   0.293   2.912   2.371  0.8628 -0.4148 -0.5296
  397SOL    HW2 1006   0.360   2.988   2.259 -0.1232  0.2838 -0.6678
  398SOL     OW 1007   2.456   0.164   0.990  0.4155  0.2911  0.1599
  398SOL    HW1 1008   2.440   0.107   1.065  0.8215  0.2690  0.2311
  398SOL    HW2 1009   2.541   0.204   1.007  0.5177  0.2762 -0.2919
  399SOL     OW 1010   0.586   3.289   1.292 -0.0069  0.4449  0.0745
  399SOL    HW1 1011   0.670   3.258   1.259 -0.2176  0.9551 -0.9654
  399SOL    HW2 1012   0.556   3.353   1.227 -1.2149  0.2445  0.4109
  400SOL     OW 1013   1.557   1.841   0.570 -0.3195 -0.0607  0.7215
  400SOL    HW1 1014   1.494   1.769   0.575 -1.1318  0.5282 -0.4110
  400SOL    HW2 1015   1.556   1.867   0.478  1.0489  0.4567  0.8319
  401SOL     OW 1016   0.279   1.727   0.554 -0.1620  0.0032 -0.1851
  401SOL    HW1 1017   0.183   1.721   0.555 -0.2073  0.6716  0.7111
  401SOL    HW2 1018   0.308   1.638   0.534 -0.9206 -0.9956  2.6793
  402SOL     OW 1019   0.805   2.205   0.924 -0.6976  0.0699 -0.3807
  402SOL    HW1 1020   0.731   2.200   0.864 -0.2734  1.8069 -1.1145
  402SOL    HW2 1021   0.838   2.115   0.930 -2.9585 -0.7708  0.1246
  403SOL     OW 1022   1.887   2.662   0.869 -0.3574 -0.0697  0.6125
  403SOL    HW1 1023   1.976   2.638   0.895 -0.1816  0.1514  0.2245
  403SOL    HW2 1024   1.899   2.718   0.792 -0.8208  0.1636  0.7072
  404SOL     OW 1025   2.082   0.444   2.035  0.0844 -0.1282  0.1951
  404SOL    HW1 1026   2.018   0.459   1.965  0.6618 -0.5290 -0.4356
  404SOL    HW2 1027   2.103   0.351   2.027  0.6442 -0.0234  0.4819
  405SOL     OW 1028   1.661   2.345   2.340 -0.3601  0.4124 -0.5048
  405SOL    HW1 1029   1.756   2.355   2.338 -0.4962  2.1881 -2.8866
  405SOL    HW2 1030   1.646   2.258   2.303  0.3311 -1.0718  2.4368
  406SOL     OW 1031   1.962   2.052   0.467  0.1160  0.6734  0.5009
  406SOL    HW1 1032   1.917   1.971   0.443 -0.5859  1.4659 -0.9189
  406SOL    HW2 1033   1.912   2.086   0.541 -0.6133  0.6934 -0.0019
  407SOL     OW 1034   3.278   0.631   0.073  0.1035 -0.1669 -0.1183
  407SOL    HW1 1035   3.316   0.550   0.040 -2.7473 -2.7050  2.2641
  407SOL    HW2 1036   3.220   0.661   0.003 -1.6012 -2.3381  0.2499
  408SOL     OW 1037   1.465   1.956   0.986  0.0978 -0.0710 -0.3217
  408SOL    HW1 1038   1.408   1.977   0.912  1.7651  1.6748 -1.2248
  408SOL    HW2 1039   1.467   1.860   0.988 -4.5852 -0.3631  1.2747
  409SOL     OW 1040   2.146   1.109   3.073  0.0644  0.3844 -0.1961
  409SOL    HW1 1041   2.051   1.121   3.084  0.0162 -0.5272  0.5179
  409SOL    HW2 1042   2.167   1.156   2.993 -0.6608  2.2981  0.6556
  410SOL     OW 1043   1.409   0.404   1.872  0.0912 -0.3871 -0.0902
  410SOL    HW1 1044   1.448   0.437   1.953 -0.5268  0.6360 -0.1928
  410SOL    HW2 1045   1.315   0.409   1.887 -0.0214 -1.2388 -0.4695
  411SOL     OW 1046   0.825   1.940   2.205  0.0192 -0.2710  0.0974
  411SOL    HW1 1047   0.913   1.973   2.220 -0.2470  0.2070  0.6524
  411SOL    HW2 1048   0.833   1.882   2.129  0.8682 -0.4970  0.3555
  412SOL     OW 1049   2.792   2.177   1.141 -0.0402  0.3865  0.3709
  412SOL    HW1 1050   2.743   2.175   1.058  1.8398  0.9777 -0.8131
  412SOL    HW2 1051   2.788   2.087   1.173  2.1214 -0.7708 -2.2152
  413SOL     OW 1052   1.268   2.685   1.471  0.3829 -0.2134  0.3123
  413SOL    HW1 1053   1.206   2.757   1.465  1.1143  0.6219  2.1273
  413SOL    HW2 1054   1.284   2.660   1.380 -1.6612  0.3297 -0.2544
  414SOL     OW 1055   3.056   2.067   1.609 -0.0972  0.2755 -0.4142
  414SOL    HW1 1056   2.965   2.085   1.588  0.2069 -0.0619 -2.2589
  414SOL    HW2 1057   3.098   2.153   1.608 -0.5499  0.5664  1.5486
  415SOL     OW 1058   3.102   0.234   1.199  0.2286  0.1030  0.4361
  415SOL    HW1 1059   3.181   0.288   1.196  0.2278  0.1184 -2.9998
  415SOL    HW2 1060   3.030   0.296   1.196  0.0411  0.0480  2.5959
  416SOL     OW 1061   1.017   2.346   1.287 -0.3978  0.1714  0.4238
  416SOL    HW1 1062   1.003   2.406   1.214 -0.5063  0.5418  0.7485
  416SOL    HW2 1063   1.080   2.391   1.343  1.3032 -0.9741 -0.4514
  417SOL     OW 1064   0.247   1.877   1.486 -0.1008  0.2119  0.0375
  417SOL    HW1 1065   0.280   1.787   1.482  0.0687  0.2792 -0.0711
  417SOL    HW2 1066   0.154   1.869   1.464 -0.0943  0.0590  0.0628
  418SOL     OW 1067   3.216   0.444   0.279 -0.9579 -0.0171  0.0142
  418SOL    HW1 1068   3.192   0.381   0.211 -0.4426 -0.5040  0.2771
  418SOL    HW2 1069   3.243   0.522   0.231  1.1041 -0.9450 -0.4230
  419SOL     OW 1070   1.953   1.354   3.287 -0.2030  0.6624 -0.0198
  419SOL    HW1 1071   1.980   1.409   3.360 -0.3088  2.7173 -1.4318
  419SOL    HW2 1072   2.032   1.346   3.233  0.3767 -2.3414  1.1330
  420SOL     OW 1073   0.345   0.905   2.294 -0.3376 -0.2972 -0.4325
  420SOL    HW1 1074   0.399   0.976   2.257 -0.0084  0.3802  1.2770
  420SOL    HW2 1075   0.310   0.941   2.375 -0.9412 -1.7857  0.0005
  421SOL     OW 1076   1.613   1.518   0.634  0.1756 -0.0117 -0.4468
  421SOL    HW1 1077   1.681   1.561   0.686  0.0162  0.4211 -0.5921
  421SOL    HW2 1078   1.545   1.584   0.624 -0.0599 -0.2879 -0.7017
  422SOL     OW 1079   1.529   1.139   0.816 -0.4586 -0.0065 -0.4286
  422SOL    HW1 1080   1.553   1.153   0.907 -0.5993  1.5470 -0.5967
  422SOL    HW2 1081   1.512   1.045   0.809  4.1066 -1.1022  0.0380
  423SOL     OW 1082   1.147   2.955   1.441  0.7784 -0.5036 -0.4326
  423SOL    HW1 1083   1.109   2.995   1.519 -1.7574 -1.7417 -0.9303
  423SOL    HW2 1084   1.152   3.027   1.377  0.3246 -0.0599  0.0220
  424SOL     OW 1085   0.884   2.453   3.258  0.0160  0.1274  0.0954
  424SOL    HW1 1086   0.924   2.494   3.335 -0.7314 -1.1419  1.2042
  424SOL    HW2 1087   0.790   2.465   3.271 -0.1998 -1.5347  0.2444
  425SOL     OW 1088   0.135   3.083   0.921  0.0591  0.3742  0.6830
  425SOL    HW1 1089   0.067   3.101   0.856  0.9762  2.0981  0.1513
  425SOL    HW2 1090   0.161   3.169   0.953  2.3881 -0.1923  0.4689
  426SOL     OW 1091   0.205   2.794   0.557  0.2704  0.1993  0.2992
  426SOL    HW1 1092   0.154   2.763   0.632  1.0201 -2.0572 -0.0538
  426SOL    HW2 1093   0.198   2.724   0.492 -1.0873  2.4556 -2.1861
  427SOL     OW 1094   0.175   1.359   0.626  0.3622 -0.1336  0.0743
  427SOL    HW1 1095   0.239   1.299   0.587 -0.2910 -2.7106  2.6529
  427SOL    HW2 1096   0.225   1.410   0.689  0.2195 -0.9891  0.9019
  428SOL     OW 1097   0.864   0.260   1.873 -0.5986 -0.3412 -0.4619
  428SOL    HW1 1098   0.904   0.180   1.908  1.6949  1.1497  0.6242
  428SOL    HW2 1099   0.853   0.242   1.779  1.2364 -1.4667 -0.5250
  429SOL     OW 1100   3.135   2.768   0.824 -0.6097  0.0412  0.1191
  429SOL    HW1 1101   3.068   2.701   0.812 -0.1303 -0.4780  0.3088
  429SOL    HW2 1102   3.144   2.776   0.919  0.8737 -1.2085  0.1211
  430SOL     OW 1103   2.929   1.822   2.017  0.1489 -0.9426  0.0992
  430SOL    HW1 1104   2.846   1.781   1.991 -0.5180  0.4415 -0.0277
  430SOL    HW2 1105   2.988   1.804   1.944 -0.8592  0.3955 -1.1080
  431SOL     OW 1106   3.171   0.920   2.939 -0.0363  0.1302 -0.7666
  431SOL    HW1 1107   3.221   0.840   2.949  0.8085  0.5258 -1.6349
  431SOL    HW2 1108   3.235   0.990   2.949 -0.5643  0.6651 -1.0849
  432SOL     OW 1109   1.611   0.751   0.073  0.0860 -0.1434 -0.0511
  432SOL    HW1 1110   1.621   0.732  -0.020  0.2596  1.7317 -0.4514
  432SOL    HW2 1111   1.590   0.667   0.113 -0.0063 -0.9732 -1.7855
  433SOL     OW 1112   0.332   0.531   1.232 -0.0996 -0.1516  0.0140
  433SOL    HW1 1113   0.365   0.604   1.284 -0.0916 -0.1661  0.0294
  433SOL    HW2 1114   0.302   0.467   1.296 -0.3330 -0.0579  0.0004
  434SOL     OW 1115   0.170   1.364   0.945 -0.4662  0.1795 -0.2461
  434SOL    HW1 1116   0.251   1.349   0.993 -2.2537 -1.9036  2.4620
  434SOL    HW2 1117   0.155   1.283   0.897 -1.7007 -0.1095  0.5842
  435SOL     OW 1118   2.872   1.830   0.361  0.8249 -0.1066 -0.4650
  435SOL    HW1 1119   2.849   1.867   0.276  0.9024  0.4494 -0.2512
  435SOL    HW2 1120   2.792   1.838   0.413  0.6045 -0.9785 -0.6592
  436SOL     OW 1121   1.739   0.296   0.140 -0.8505  0.3244  0.0637
  436SOL    HW1 1122   1.731   0.275   0.233  1.0824  0.0867  0.2214
  436SOL    HW2 1123   1.711   0.217   0.095 -1.0592  0.1661  0.4676
  437SOL     OW 1124   3.211   0.755   1.776 -0.4402 -0.0783 -0.4680
  437SOL    HW1 1125   3.305   0.738   1.772  0.4380  2.8557  3.0225
  437SOL    HW2 1126   3.200   0.843   1.741 -2.1313 -0.7442 -1.7985
  438SOL     OW 1127   1.688   1.062   2.851 -0.4514 -0.1678 -0.4467
  438SOL    HW1 1128   1.729   1.148   2.859  0.3450 -0.6385  0.9618
  438SOL    HW2 1129   1.755   1.007   2.811  0.0701 -0.7415  1.1139
  439SOL     OW 1130   2.955   0.513   0.871  0.0216  0.1302 -0.4116
  439SOL    HW1 1131   2.911   0.494   0.788  0.5469  0.4643 -0.7705
  439SOL    HW2 1132   2.971   0.608   0.868  0.9043 -0.0143 -0.3559
  440SOL     OW 1133   0.548   0.516   0.729  0.6004  0.4475  0.6003
  440SOL    HW1 1134   0.567   0.423   0.743 -2.0783 -0.2320  0.2937
  440SOL    HW2 1135   0.509   0.545   0.812  2.1539  1.5573  0.9781
  441SOL     OW 1136   3.063   2.076   2.717 -0.0123  0.4268 -0.1324
  441SOL    HW1 1137   3.039   2.036   2.633  0.7460 -1.4422  0.5032
  441SOL    HW2 1138   2.980   2.084   2.764 -0.1993 -0.2957 -0.3268
  442SOL     OW 1139   2.734   3.047   2.932 -0.1055  0.0048  0.3182
  442SOL    HW1 1140   2.733   3.126   2.986 -0.3649  0.9775 -1.0671
  442SOL    HW2 1141   2.648   3.045   2.891 -0.2534 -1.2437  0.6723
  443SOL     OW 1142   1.160   1.297   2.528 -0.3431  0.5965 -0.3343
  443SOL    HW1 1143   1.243   1.250   2.521 -1.2749 -1.2597  0.3966
  443SOL    HW2 1144   1.148   1.311   2.622 -1.3016 -0.0697 -0.3390
  444SOL     OW 1145   1.498   0.161   2.413 -0.1002  0.2314  0.0596
  444SOL    HW1 1146   1.588   0.128   2.409  0.2165  0.9409  0.9108
  444SOL    HW2 1147   1.488   0.193   2.503 -1.8893 -1.7148  0.6392
  445SOL     OW 1148   1.572   1.629   2.273 -0.0697 -0.2636 -0.0308
  445SOL    HW1 1149   1.533   1.638   2.186  0.0104 -0.8953 -0.1346
  445SOL    HW2 1150   1.516   1.682   2.330  0.2061  0.6168 -0.5589
  446SOL     OW 1151   2.660   0.908   1.118  0.2079 -0.3184 -0.0669
  446SOL    HW1 1152   2.613   0.905   1.034 -2.3807  1.7090  1.1542
  446SOL    HW2 1153   2.600   0.867   1.180 -0.0996  2.3901  1.5731
  447SOL     OW 1154   0.844   3.006   1.091  0.0132 -0.2074  0.2232
  447SOL    HW1 1155   0.860   2.929   1.145 -0.3961 -0.4586 -0.0009
  447SOL    HW2 1156   0.789   2.973   1.019 -0.0550  0.2674  0.0559
  448SOL     OW 1157   0.845   2.768   0.243 -0.1738 -0.0634 -0.3904
  448SOL    HW1 1158   0.782   2.727   0.303  1.6870 -1.2407  0.8639
  448SOL    HW2 1159   0.884   2.839   0.294 -1.5521  1.7730 -1.7134
  449SOL     OW 1160   2.650   2.013   3.305 -0.3887  0.5505 -0.1350
  449SOL    HW1 1161   2.734   2.045   3.336  1.1170 -3.1875  0.1258
  449SOL    HW2 1162   2.644   2.045   3.215  3.2656 -2.0241 -1.5482
  450SOL     OW 1163   0.992   1.351   0.783  0.1184  0.0686  0.2012
  450SOL    HW1 1164   0.967   1.333   0.874  0.3537  1.5961  0.5893
  450SOL    HW2 1165   1.031   1.269   0.753  1.1805 -0.0967  1.8885
  451SOL     OW 1166   0.927   2.401   2.531 -0.0735 -0.1477 -0.5376
  451SOL    HW1 1167   0.902   2.404   2.439 -0.6991 -1.5225 -0.4449
  451SOL    HW2 1168   0.998   2.464   2.539  0.3681 -0.4080 -2.0791
  452SOL     OW 1169   3.295   3.177   0.316 -1.1002  0.1676 -0.2150
  452SOL    HW1 1170   3.285   3.226   0.234 -1.1760 -0.6921 -0.7219
  452SOL    HW2 1171   3.279   3.086   0.292  1.5854 -0.4966  0.1760
  453SOL     OW 1172   0.827   1.472   2.157 -0.0915  0.2907 -0.2088
  453SOL    HW1 1173   0.897   1.408   2.164 -2.5807 -2.5714  0.8242
  453SOL    HW2 1174   0.862   1.550   2.200  1.4590 -1.9982  3.1518
  454SOL     OW 1175   2.382   0.046   1.988 -0.4237  0.1450  0.1276
  454SOL    HW1 1176   2.469   0.021   2.016 -0.5132 -0.1686  0.1214
  454SOL    HW2 1177   2.395   0.127   1.937 -0.0677 -0.2547 -0.4207
  455SOL     OW 1178   2.946   0.440   2.573  0.2617  0.8780  0.0033
  455SOL    HW1 1179   3.034   0.406   2.557  0.5323  0.2843  2.4036
  455SOL    HW2 1180   2.888   0.380   2.527  1.0690  1.0649 -1.3012
  456SOL     OW 1181   1.987   3.278   1.557 -0.1811  0.1164 -0.2048
  456SOL    HW1 1182   2.075   3.258   1.589  0.9410  1.4052 -2.2740
  456SOL    HW2 1183   1.972   3.215   1.487  0.1249  1.3757 -1.4467
  457SOL     OW 1184   2.967   0.629   0.187  0.7221  0.1176  0.3999
  457SOL    HW1 1185   2.929   0.626   0.274  0.7222 -0.5251  0.3829
  457SOL    HW2 1186   3.037   0.563   0.189  0.1335 -0.5521 -0.3487
  458SOL     OW 1187   3.069   2.342   1.609  0.4105  0.7287  0.2150
  458SOL    HW1 1188   3.066   2.427   1.566 -0.2121 -0.6293 -2.6112
  458SOL    HW2 1189   2.977   2.317   1.618  0.5396  0.7729  2.0302
  459SOL     OW 1190   1.419   3.088   1.178  0.6671  0.7253  0.0102
  459SOL    HW1 1191   1.452   3.084   1.088 -0.5148  1.1558 -0.4620
  459SOL    HW2 1192   1.324   3.078   1.169  0.4830  1.2698  1.1649
  460SOL     OW 1193   2.825   2.596   3.118  0.2009 -0.1654  0.0703
  460SOL    HW1 1194   2.822   2.501   3.107  1.0190 -0.1386 -0.3939
  460SOL    HW2 1195   2.748   2.628   3.071  0.8177 -0.4738 -1.1671
  461SOL     OW 1196   0.339   0.913   0.065  0.8475 -0.3837 -0.0130
  461SOL    HW1 1197   0.263   0.971   0.057  0.4932 -0.4930  2.0395
  461SOL    HW2 1198   0.314   0.835   0.015  0.3221  0.2507 -0.7685
  462SOL     OW 1199   1.865   2.597   2.513 -0.6269  0.6204 -0.7048
  462SOL    HW1 1200   1.941   2.654   2.523 -0.9800  1.5231 -2.6266
  462SOL    HW2 1201   1.889   2.517   2.560  0.6506  1.6296  0.4605
  463SOL     OW 1202   0.366   2.546   1.831  0.3079  0.1842 -0.3919
  463SOL    HW1 1203   0.352   2.638   1.854  1.6983 -0.1937  2.3616
  463SOL    HW2 1204   0.360   2.544   1.735 -3.3237  2.4476 -0.3642
  464SOL     OW 1205   2.643   0.292   3.309 -0.2849  0.7271 -0.2091
  464SOL    HW1 1206   2.564   0.265   3.263 -0.6778  0.5330  0.5637
  464SOL    HW2 1207   2.714   0.276   3.246 -0.5917 -1.3072 -0.1241
  465SOL     OW 1208   1.872   0.533   3.195 -0.4759  0.1866 -0.3176
  465SOL    HW1 1209   1.820   0.566   3.269  0.7117 -0.3562  0.8122
  465SOL    HW2 1210   1.957   0.575   3.204  0.2801 -1.2641 -0.2710
  466SOL     OW 1211   2.086   2.743   1.554 -0.2939 -0.0246 -0.1099
  466SOL    HW1 1212   2.118   2.654   1.572  0.8056  0.5894  1.1114
  466SOL    HW2 1213   2.064   2.778   1.640  0.6619  1.3781 -0.4079
  467SOL     OW 1214   3.367   2.909   2.318 -0.2196 -0.5153  0.1746
  467SOL    HW1 1215   3.407   2.867   2.394 -1.4856  1.3367  1.9382
  467SOL    HW2 1216   3.274   2.886   2.324 -0.5988  0.9224  0.0929
  468SOL     OW 1217   2.386   2.210   2.601 -0.1087  0.3826  0.1523
  468SOL    HW1 1218   2.418   2.218   2.690  0.5685  0.6781 -0.1165
  468SOL    HW2 1219   2.328   2.285   2.589 -1.1827 -0.3265  0.7426
  469SOL     OW 1220   1.935   2.192   0.804  1.3212  0.6099  0.2794
  469SOL    HW1 1221   1.864   2.173   0.865  1.4966  0.2638  0.3806
  469SOL    HW2 1222   1.928   2.286   0.787  0.0529  0.3627 -0.6985
  470SOL     OW 1223   0.089   1.541   0.377 -0.3151 -0.1191 -0.0333
  470SOL    HW1 1224   0.073   1.493   0.458 -1.2412  1.0226  0.4812
  470SOL    HW2 1225   0.043   1.491   0.310 -1.0846 -0.0778  0.4581
  471SOL     OW 1226   1.102   0.582   1.177 -0.1181  0.6246 -0.2465
  471SOL    HW1 1227   1.072   0.494   1.200  0.9748  0.7536  1.9601
  471SOL    HW2 1228   1.129   0.575   1.086  0.1152 -1.3786 -0.0674
  472SOL     OW 1229   2.416   2.211   2.117  0.3849 -0.2191  0.4629
  472SOL    HW1 1230   2.369   2.237   2.037  0.3696 -0.2007  0.4780
  472SOL    HW2 1231   2.355   2.152   2.162  0.0815  0.3813  0.8449
  473SOL     OW 1232   2.950   0.470   1.152 -0.5563  0.4153 -0.0879
  473SOL    HW1 1233   3.015   0.538   1.171  1.2084 -0.3931 -2.7427
  473SOL    HW2 1234   2.945   0.468   1.057 -2.7748 -1.2015 -0.0048
  474SOL     OW 1235   2.165   0.092   2.262 -0.3460  0.2048  0.1262
  474SOL    HW1 1236   2.076   0.104   2.231 -0.5998  1.2326  1.1883
  474SOL    HW2 1237   2.156   0.048   2.346  0.1889 -0.2106 -0.0241
  475SOL     OW 1238   1.201   0.250   0.879 -0.0990  0.7040 -0.2181
  475SOL    HW1 1239   1.223   0.232   0.787  1.0595  0.8931 -0.0002
  475SOL    HW2 1240   1.286   0.256   0.922 -0.5985 -2.4547  1.4930
  476SOL     OW 1241   2.359   1.611   2.812 -0.0392 -0.4840 -0.0227
  476SOL    HW1 1242   2.266   1.629   2.829 -0.0043  0.8710 -1.0050
  476SOL    HW2 1243   2.406   1.679   2.861  0.4058 -0.8544  0.0689
  477SOL     OW 1244   3.052   2.555   2.006  0.1213 -0.0255 -0.1609
  477SOL    HW1 1245   3.072   2.576   1.915  1.8506  0.9213  0.3915
  477SOL    HW2 1246   3.135   2.526   2.043 -0.7004 -1.0577  0.9630
  478SOL     OW 1247   0.031   2.781   0.775  0.5043 -0.3850  0.0603
  478SOL    HW1 1248  -0.064   2.766   0.772  0.4534  0.0083 -0.9655
  478SOL    HW2 1249   0.054   2.772   0.867 -0.3468 -1.5805  0.1830
  479SOL     OW 1250   0.681   0.294   0.710 -0.4466 -0.4699  0.1747
  479SOL    HW1 1251   0.654   0.232   0.642  2.1231 -0.5940 -0.8361
  479SOL    HW2 1252   0.770   0.320   0.685  0.6424 -0.5256  3.5168
  480SOL     OW 1253   2.919   3.148   1.077  0.1571  0.5550  0.7156
  480SOL    HW1 1254   2.913   3.061   1.116 -1.9862  0.8904  1.2523
  480SOL    HW2 1255   2.831   3.184   1.084  0.5595  2.0793 -1.1409
  481SOL     OW 1256   3.226   3.367   1.777  0.2968 -0.0620 -0.1156
  481SOL    HW1 1257   3.151   3.372   1.718 -1.6538 -0.4707  2.1634
  481SOL    HW2 1258   3.246   3.273   1.782  0.6668  0.0019 -0.3387
  482SOL     OW 1259   1.904   1.360   0.307  0.4661  0.5742  0.4215
  482SOL    HW1 1260   1.894   1.266   0.323 -1.3222  0.4563 -1.0807
  482SOL    HW2 1261   1.953   1.365   0.225 -2.2056  0.8016 -1.2757
  483SOL     OW 1262   0.118   2.415   1.834 -0.1931  0.4732  0.6944
  483SOL    HW1 1263   0.066   2.441   1.758  0.4197  0.8634  0.4002
  483SOL    HW2 1264   0.193   2.475   1.833  0.8660 -0.7974  0.4257
  484SOL     OW 1265   1.857   2.916   2.251  0.2489  0.4322 -0.1081
  484SOL    HW1 1266   1.810   2.989   2.211 -0.0607 -0.1937 -0.9447
  484SOL    HW2 1267   1.798   2.884   2.320 -1.3179 -1.2510 -2.0775
  485SOL     OW 1268   0.266   2.873   2.943  0.3017 -0.2403  0.1466
  485SOL    HW1 1269   0.290   2.782   2.924 -0.8354 -0.3517 -0.8935
  485SOL    HW2 1270   0.349   2.920   2.940  0.6584 -0.8908 -1.6047
  486SOL     OW 1271   2.458   1.628   2.569 -0.1944  0.3881  1.0264
  486SOL    HW1 1272   2.414   1.608   2.652 -1.4116 -1.7646 -0.0521
  486SOL    HW2 1273   2.540   1.578   2.573 -0.8609 -0.7949  0.4399
  487SOL     OW 1274   1.497   1.032   0.428 -0.9233 -0.1127  0.2515
  487SOL    HW1 1275   1.471   0.987   0.508  0.1767 -0.6833  0.3059
  487SOL    HW2 1276   1.502   1.124   0.453  1.1325 -0.4526  1.3750
  488SOL     OW 1277   2.771   1.832   2.990  0.8050  0.5108  0.1126
  488SOL    HW1 1278   2.812   1.781   3.061  0.7305  1.2515  0.6962
  488SOL    HW2 1279   2.818   1.804   2.911  0.4318 -0.8233  0.3413
  489SOL     OW 1280   1.293   0.279   0.340  0.3701 -0.6076  0.4565
  489SOL    HW1 1281   1.354   0.255   0.271 -0.8042 -2.0507 -0.1402
  489SOL    HW2 1282   1.215   0.227   0.322 -1.0852  1.2056  1.1341
  490SOL     OW 1283   2.573   2.206   1.493  0.1680  0.1345  0.8142
  490SOL    HW1 1284   2.528   2.284   1.461 -0.7962 -0.9546 -0.6188
  490SOL    HW2 1285   2.503   2.149   1.524  0.5093 -1.5103 -1.2440
  491SOL     OW 1286   0.662   1.795   0.748  0.1666  0.5306 -0.5747
  491SOL    HW1 1287   0.711   1.740   0.808 -1.5063  0.7129  1.0721
  491SOL    HW2 1288   0.686   1.764   0.660  1.7097 -0.6059  0.2073
  492SOL     OW 1289   2.379   1.639   0.707 -0.4790  0.3992 -0.0780
  492SOL    HW1 1290   2.367   1.727   0.742 -3.4133  0.3708 -0.7394
  492SOL    HW2 1291   2.361   1.648   0.613 -0.6727 -0.8726 -0.1859
  493SOL     OW 1292   2.421   1.471   0.096 -0.3322  0.5026  0.2445
  493SOL    HW1 1293   2.471   1.551   0.112  1.3825 -0.2674 -0.9185
  493SOL    HW2 1294   2.469   1.426   0.027 -0.6071 -2.0536  1.5789
  494SOL     OW 1295   0.678   1.136   1.447  0.1100 -0.1688  0.8341
  494SOL    HW1 1296   0.707   1.060   1.497 -1.4900 -1.1245  0.3762
  494SOL    HW2 1297   0.613   1.102   1.386 -0.2475  1.4816  0.2239
  495SOL     OW 1298   0.303   0.199   1.630  0.5044  0.2121  0.1463
  495SOL    HW1 1299   0.302   0.206   1.726  1.5487 -0.0404  0.1927
  495SOL    HW2 1300   0.256   0.118   1.611 -0.1615  0.5299  0.4059
  496SOL     OW 1301   1.608   1.156   1.776 -0.0887  0.5889  0.1171
  496SOL    HW1 1302   1.524   1.116   1.753 -1.5988  3.5280 -0.0669
  496SOL    HW2 1303   1.672   1.086   1.769 -2.4647 -1.6890 -0.1385
  497SOL     OW 1304   0.921   0.978   1.929 -0.2102 -0.0035 -0.2964
  497SOL    HW1 1305   0.852   1.038   1.957  1.0632  1.3056  0.1506
  497SOL    HW2 1306   0.948   1.010   1.843  0.0095 -0.3536 -0.3603
  498SOL     OW 1307   1.871   2.480   1.425 -0.1866  0.0846 -0.4777
  498SOL    HW1 1308   1.784   2.517   1.438  0.4382  1.2412  0.6657
  498SOL    HW2 1309   1.915   2.491   1.509  0.7519 -1.4007 -0.7226
  499SOL     OW 1310   0.586   2.010   2.044  0.3363  0.1431 -0.1201
  499SOL    HW1 1311   0.559   2.097   2.073 -1.5997 -1.1003  2.1801
  499SOL    HW2 1312   0.652   1.982   2.108 -1.1387 -1.1211  0.9304
  500SOL     OW 1313   2.553   2.581   3.063  0.0168  0.0689  0.0455
  500SOL    HW1 1314   2.516   2.526   3.131 -1.5346  0.2270 -0.6302
  500SOL    HW2 1315   2.555   2.669   3.100 -0.0962  0.0250  0.1517
  501SOL     OW 1316   3.210   1.074   0.080 -0.5934 -0.0057 -0.9435
  501SOL    HW1 1317   3.301   1.046   0.090 -0.6852 -0.1411 -0.4593
  501SOL    HW2 1318   3.159   0.993   0.085 -0.7579  0.0940 -0.9983
  502SOL     OW 1319   2.595   0.946   0.838 -0.1401 -0.1877  0.1777
  502SOL    HW1 1320   2.665   0.958   0.773  0.2821  0.9824  0.8324
  502SOL    HW2 1321   2.586   0.851   0.845  0.9345 -0.3510 -0.4039
  503SOL     OW 1322   0.805   3.274   0.610  1.1003 -0.6379  0.2019
  503SOL    HW1 1323   0.831   3.360   0.577  0.3771 -0.3483  0.3633
  503SOL    HW2 1324   0.764   3.231   0.535 -1.1315  0.2678  0.8378
  504SOL     OW 1325   2.500   1.602   1.111  0.2380  0.0111 -0.2584
  504SOL    HW1 1326   2.431   1.599   1.045  0.5461  1.0070 -0.6553
  504SOL    HW2 1327   2.513   1.511   1.138 -0.5277 -0.2968 -0.9029
  505SOL     OW 1328   2.976   3.038   1.460  0.3804  0.1470  0.0997
  505SOL    HW1 1329   2.994   3.080   1.376 -1.2283  0.5165 -0.1061
  505SOL    HW2 1330   2.882   3.020   1.458 -0.3113  2.6265  2.8944
  506SOL     OW 1331   3.222   2.614   3.170  0.0631  0.0011  0.2449
  506SOL    HW1 1332   3.265   2.573   3.245 -2.3132 -1.1906  1.0713
  506SOL    HW2 1333   3.284   2.605   3.098  1.3958 -1.0696  1.4769
  507SOL     OW 1334   1.874   1.270   1.280  0.0812 -0.2341 -0.4456
  507SOL    HW1 1335   1.882   1.352   1.329 -0.0688  0.8787 -2.2214
  507SOL    HW2 1336   1.964   1.247   1.256  0.0039  0.0874 -1.0361
  508SOL     OW 1337   1.611   2.095   2.168 -0.1074 -0.5744 -0.1880
  508SOL    HW1 1338   1.609   2.033   2.241  0.8315 -0.0342  0.3109
  508SOL    HW2 1339   1.663   2.051   2.100 -0.4088 -0.7970 -0.2771
  509SOL     OW 1340   1.226   1.691   0.969 -0.3282 -0.1009  0.2871
  509SOL    HW1 1341   1.321   1.700   0.967 -0.2586 -0.7085  0.6441
  509SOL    HW2 1342   1.204   1.687   1.062 -0.6530 -0.4647  0.1982
  510SOL     OW 1343   1.655   0.191   1.598  0.0426 -0.5531  0.1369
  510SOL    HW1 1344   1.606   0.202   1.517  0.1687  0.5369  0.1960
  510SOL    HW2 1345   1.685   0.279   1.621  1.3064 -1.0679  0.5569
  511SOL     OW 1346   1.702   1.671   2.580 -0.0494 -0.2177  0.5746
  511SOL    HW1 1347   1.791   1.689   2.549 -0.5710 -0.8796 -1.4597
  511SOL    HW2 1348   1.695   1.575   2.577 -0.4107 -0.2540  2.0195
  512SOL     OW 1349   2.662   2.083   3.044  0.2946  0.5384  0.1311
  512SOL    HW1 1350   2.720   2.142   2.995  0.1780  1.0096  0.5538
  512SOL    HW2 1351   2.704   1.997   3.038  1.2025  0.9277  0.6802
  513SOL     OW 1352   2.949   0.154   2.676  0.5868 -0.3977  0.2645
  513SOL    HW1 1353   3.014   0.085   2.685  1.0034 -0.2407 -1.2495
  513SOL    HW2 1354   2.995   0.234   2.700  1.3035 -0.1520 -1.7322
  514SOL     OW 1355   1.451   1.247   1.460  0.0236  0.0726  0.0118
  514SOL    HW1 1356   1.480   1.298   1.535  0.3230 -1.8206  1.2487
  514SOL    HW2 1357   1.405   1.172   1.497  0.7631 -1.2752 -1.6320
  515SOL     OW 1358   3.138   1.807   1.557 -0.0141 -0.3572  0.1172
  515SOL    HW1 1359   3.055   1.771   1.525 -1.1523  0.9019  1.4800
  515SOL    HW2 1360   3.120   1.900   1.572  2.0586  0.2601 -0.7985
  516SOL     OW 1361   3.062   0.629   0.587  0.2275 -0.3110  0.1108
  516SOL    HW1 1362   3.127   0.697   0.607 -1.1416  1.3847 -0.9405
  516SOL    HW2 1363   2.978   0.668   0.611 -0.5462 -1.9389  0.1686
  517SOL     OW 1364   3.352   0.421   1.652  0.5650  0.4675  0.3524
  517SOL    HW1 1365   3.324   0.348   1.707  1.8478 -0.2084  0.1444
  517SOL    HW2 1366   3.290   0.422   1.580  1.3693 -1.3922 -0.4387
  518SOL     OW 1367   2.748   1.108   0.672 -0.7504 -0.2898 -0.3480
  518SOL    HW1 1368   2.712   1.181   0.622  1.3789  1.0328 -0.0909
  518SOL    HW2 1369   2.805   1.150   0.737  0.3806 -2.1786 -0.0532
  519SOL     OW 1370   0.426   1.174   0.746 -0.9143 -0.0870  0.1927
  519SOL    HW1 1371   0.417   1.266   0.771  0.4939 -0.2452  1.4112
  519SOL    HW2 1372   0.496   1.173   0.681 -0.7523 -0.3230  0.3678
  520SOL     OW 1373   1.802   2.874   1.463 -0.5108  0.3608  0.5272
  520SOL    HW1 1374   1.840   2.798   1.508  0.0349  0.5996  0.4738
  520SOL    HW2 1375   1.710   2.873   1.489 -0.5727 -0.4708  0.3205
  521SOL     OW 1376   2.900   0.883   2.482  0.2658  0.2159 -0.6897
  521SOL    HW1 1377   2.930   0.973   2.472 -1.6892  1.0083 -0.0819
  521SOL    HW2 1378   2.834   0.872   2.413 -0.5811 -0.2181  0.1618
  522SOL     OW 1379   2.757   0.009   0.292  0.3058  0.6520 -0.1600
  522SOL    HW1 1380   2.839   0.024   0.246 -0.5338  1.6070 -1.4517
  522SOL    HW2 1381   2.740   0.091   0.338  0.8304 -0.0844  1.3909
  523SOL     OW 1382   2.216   1.986   1.826  0.2977 -0.4693 -0.3471
  523SOL    HW1 1383   2.263   1.948   1.900  0.9120 -1.2113 -1.1046
  523SOL    HW2 1384   2.130   1.945   1.828  0.1411 -0.1190  0.2422
  524SOL     OW 1385   2.817   1.483   1.573 -0.2231 -0.0641  0.4369
  524SOL    HW1 1386   2.815   1.460   1.666 -0.4850 -0.9234  0.2280
  524SOL    HW2 1387   2.805   1.399   1.528  1.6008  0.0858 -0.4075
  525SOL     OW 1388   0.584   1.885   1.769  0.0130  0.3913 -0.1424
  525SOL    HW1 1389   0.492   1.875   1.744 -0.1875 -0.2823  0.8130
  525SOL    HW2 1390   0.581   1.921   1.858  0.6963  1.7871 -0.6530
  526SOL     OW 1391   3.243   0.359   2.549 -0.0307 -0.6553  0.3831
  526SOL    HW1 1392   3.272   0.405   2.628  0.0543  0.5680 -0.3287
  526SOL    HW2 1393   3.317   0.365   2.489 -0.9165  0.5957 -0.6604
  527SOL     OW 1394   0.684   2.108   0.001 -0.9791 -0.1760  0.1175
  527SOL    HW1 1395   0.745   2.132   0.070 -1.0388  1.7471 -0.4278
  527SOL    HW2 1396   0.739   2.088  -0.074 -0.9625 -0.1542  0.1239
  528SOL     OW 1397   2.857   0.274   3.154  0.4514  0.1809 -0.5107
  528SOL    HW1 1398   2.809   0.312   3.081 -0.3862 -0.8945 -0.5343
  528SOL    HW2 1399   2.878   0.185   3.126 -0.6473 -0.5531  0.8546
  529SOL     OW 1400   2.917   2.339   0.370 -0.0092 -0.4904 -0.0021
  529SOL    HW1 1401   2.937   2.412   0.428 -0.4024 -0.2251 -0.1940
  529SOL    HW2 1402   2.990   2.278   0.381  0.3845 -0.0109  0.0679
  530SOL     OW 1403   2.326   0.009   0.751 -0.4777 -0.1808  0.5787
  530SOL    HW1 1404   2.310  -0.002   0.844  1.5087 -0.1592  0.9803
  530SOL    HW2 1405   2.404   0.065   0.747 -0.4382 -0.3093 -1.0830
  531SOL     OW 1406   2.480   1.946   0.447  0.2230 -0.0895  0.2845
  531SOL    HW1 1407   2.433   1.906   0.374 -0.6634  2.1150 -0.4317
  531SOL    HW2 1408   2.412   1.971   0.509  0.8995 -1.1289  1.5212
  532SOL     OW 1409   1.314   2.195   1.706 -0.0830  0.4850 -0.2182
  532SOL    HW1 1410   1.344   2.136   1.775 -2.2445 -1.8173 -1.0734
  532SOL    HW2 1411   1.264   2.262   1.752  2.3446  1.7357  0.7713
  533SOL     OW 1412   0.157   0.782   0.565  0.4720  0.0736 -0.3452
  533SOL    HW1 1413   0.216   0.823   0.629 -0.9930  2.0954 -0.1922
  533SOL    HW2 1414   0.197   0.801   0.481  0.6314  0.4502 -0.1891
  534SOL     OW 1415   1.948   3.080   0.146 -0.1039 -0.2964  0.3007
  534SOL    HW1 1416   1.884   3.033   0.093  0.3079  1.5619 -1.9835
  534SOL    HW2 1417   2.027   3.024   0.144 -0.7669 -1.2837  0.8481
  535SOL     OW 1418   1.780   1.592   0.821  0.0983  0.2699  0.5684
  535SOL    HW1 1419   1.862   1.544   0.813 -0.4320 -0.5281 -0.2853
  535SOL    HW2 1420   1.805   1.684   0.815  0.9797  0.0461  0.7654
  536SOL     OW 1421   0.009   1.338   2.040 -0.2671 -0.1412  0.1608
  536SOL    HW1 1422   0.100   1.353   2.062 -0.6900 -0.2753  2.1410
  536SOL    HW2 1423  -0.009   1.250   2.072 -1.2302  0.0807  0.2593
  537SOL     OW 1424   0.051   2.477   0.958 -0.3101  0.4990  0.8523
  537SOL    HW1 1425   0.127   2.461   0.901 -0.9519 -0.0774  0.1385
  537SOL    HW2 1426   0.011   2.391   0.969 -2.3787  1.1444 -0.9631
  538SOL     OW 1427   2.728   2.604   0.007  0.5287  0.3994 -0.1465
  538SOL    HW1 1428   2.785   2.615  -0.070  1.1042  1.2793  0.4020
  538SOL    HW2 1429   2.788   2.605   0.081 -0.1021  0.2182  0.3675
  539SOL     OW 1430   2.980   1.106   1.986 -0.5803 -0.0924  0.2534
  539SOL    HW1 1431   2.939   1.028   2.025 -0.4356  0.0558  0.7124
  539SOL    HW2 1432   3.006   1.078   1.899  0.4860 -0.9024  0.8057
  540SOL     OW 1433   2.758   0.424   0.698  0.1703 -0.1333 -0.6181
  540SOL    HW1 1434   2.724   0.442   0.611 -0.2573 -1.5266 -0.7518
  540SOL    HW2 1435   2.726   0.337   0.720 -0.7526  0.6445  1.4419
  541SOL     OW 1436   3.139   0.712   1.198 -0.2490 -0.0468  0.1587
  541SOL    HW1 1437   3.081   0.786   1.180 -0.8135 -0.0621  1.7973
  541SOL    HW2 1438   3.193   0.705   1.119 -0.1933  2.0780 -0.0567
  542SOL     OW 1439   0.782   3.195   2.303  0.1529  0.1586 -0.3010
  542SOL    HW1 1440   0.859   3.175   2.250 -0.6277 -0.4944 -1.2179
  542SOL    HW2 1441   0.772   3.289   2.296  0.8152  0.2370 -0.2475
  543SOL     OW 1442   1.729   0.554   1.426 -0.1036  0.3471 -0.2295
  543SOL    HW1 1443   1.776   0.478   1.460  0.5352  0.5213 -0.6979
  543SOL    HW2 1444   1.637   0.530   1.431  0.0272  0.0087  0.7304
  544SOL     OW 1445   0.107   0.896   2.128 -0.1362 -0.5037  0.2467
  544SOL    HW1 1446   0.071   0.818   2.168  2.3009 -1.0841  1.5225
  544SOL    HW2 1447   0.184   0.918   2.181  2.4646 -0.4053 -3.1437
  545SOL     OW 1448   1.587   3.221   1.429  0.1981  0.5827 -0.3115
  545SOL    HW1 1449   1.569   3.128   1.447 -2.2103  1.1589  0.5344
  545SOL    HW2 1450   1.640   3.249   1.504  1.0854 -0.1168 -0.6530
  546SOL     OW 1451   2.508   2.991   2.224 -0.4552 -0.4679 -0.0191
  546SOL    HW1 1452   2.482   2.956   2.139 -0.2655  0.9004 -0.6695
  546SOL    HW2 1453   2.604   2.993   2.221 -0.4470  1.9513 -0.8527
  547SOL     OW 1454   1.711   2.847   2.468  0.1941 -0.4577  0.2625
  547SOL    HW1 1455   1.661   2.868   2.547  1.6548  0.6765  0.9459
  547SOL    HW2 1456   1.750   2.762   2.487 -1.5566 -1.4434 -0.3554
  548SOL     OW 1457   1.206   3.051   0.219  0.1076 -0.5575 -0.3256
  548SOL    HW1 1458   1.287   3.101   0.217  0.6090 -1.3566 -0.4662
  548SOL    HW2 1459   1.171   3.057   0.131  0.4916 -0.9655 -0.5094
  549SOL     OW 1460   0.419   2.576   1.562 -0.1978 -0.0470 -0.3095
  549SOL    HW1 1461   0.406   2.604   1.472 -0.3317  0.2728 -0.1916
  549SOL    HW2 1462   0.507   2.538   1.563  0.7049  1.9525 -0.0831
  550SOL     OW 1463   2.374   2.641   2.398 -1.4954 -0.3705  0.4105
  550SOL    HW1 1464   2.426   2.562   2.385  1.5274  1.5632 -0.3069
  550SOL    HW2 1465   2.423   2.691   2.464 -2.4195  1.5436 -0.2717
  551SOL     OW 1466   1.807   2.195   0.168  0.1423  0.2764 -0.0966
  551SOL    HW1 1467   1.884   2.159   0.124 -0.7020 -0.1681 -1.2906
  551SOL    HW2 1468   1.775   2.123   0.223  0.7039  0.5409  0.5862
  552SOL     OW 1469   3.153   3.336   0.525  0.1751 -0.0335 -0.1682
  552SOL    HW1 1470   3.070   3.301   0.495  0.5292 -0.1619 -1.0452
  552SOL    HW2 1471   3.216   3.266   0.509  0.2975 -0.3421  1.4756
  553SOL     OW 1472   2.128   0.640   3.314  0.2522 -0.3220  0.1436
  553SOL    HW1 1473   2.144   0.562   3.367  0.6279  1.1098  2.2306
  553SOL    HW2 1474   2.213   0.662   3.277  0.1852 -0.7590 -0.2838
  554SOL     OW 1475   2.691   2.972   0.193  0.5964  0.2827  0.0940
  554SOL    HW1 1476   2.694   3.017   0.109  2.6494 -0.7519 -0.4608
  554SOL    HW2 1477   2.647   2.889   0.174  0.1640  0.4638  0.2833
  555SOL     OW 1478   1.062   2.175   0.428  0.0067  0.2758 -0.3585
  555SOL    HW1 1479   1.045   2.179   0.522 -0.0830 -1.9184 -0.2266
  555SOL    HW2 1480   1.064   2.081   0.408  2.6817  0.5864 -2.0655
  556SOL     OW 1481   0.993   2.292   2.048  0.4043  0.2300  0.4568
  556SOL    HW1 1482   1.052   2.320   1.978 -0.7463  0.4075 -0.4591
  556SOL    HW2 1483   0.919   2.251   2.003  1.3222 -3.0677  1.6520
  557SOL     OW 1484   0.300   1.233   0.424 -0.3244  0.6345 -0.3838
  557SOL    HW1 1485   0.210   1.217   0.394 -1.0342  1.9331  0.9331
  557SOL    HW2 1486   0.346   1.151   0.404 -1.9460 -0.3086 -0.4900
  558SOL     OW 1487   1.648   2.007   1.477 -0.2424  0.5386 -0.6016
  558SOL    HW1 1488   1.580   1.981   1.539  0.8706  1.7881  1.2590
  558SOL    HW2 1489   1.604   2.011   1.392 -1.9094 -0.9212  0.1440
  559SOL     OW 1490   2.934   3.264   2.256 -0.4965  0.1446 -0.5260
  559SOL    HW1 1491   2.973   3.331   2.200 -0.8454  2.2042  1.5100
  559SOL    HW2 1492   2.882   3.313   2.319 -0.3587 -2.0096  1.4118
  560SOL     OW 1493   1.099   2.056   2.899  0.6027 -0.2841 -0.2418
  560SOL    HW1 1494   1.115   2.069   2.806  1.4675  1.5789  0.1196
  560SOL    HW2 1495   1.159   2.117   2.943 -0.4896 -0.3810  1.5053
  561SOL     OW 1496   2.525   2.790   2.035  0.1942  0.0998  0.1381
  561SOL    HW1 1497   2.452   2.729   2.050 -0.4042  0.6750 -0.3581
  561SOL    HW2 1498   2.602   2.744   2.068 -0.5510 -0.0794  1.7269
  562SOL     OW 1499   1.612   3.053   2.191  0.2989 -0.4176 -0.1387
  562SOL    HW1 1500   1.573   2.966   2.180 -0.8850  0.1571 -0.5792
  562SOL    HW2 1501   1.599   3.073   2.284 -2.2795  0.5910 -0.6596
  563SOL     OW 1502   1.144   1.124   0.656  0.5540 -0.2853  0.0322
  563SOL    HW1 1503   1.206   1.186   0.695  0.8568  0.0177 -0.9030
  563SOL    HW2 1504   1.147   1.048   0.714  1.2255  0.0281  0.4220
  564SOL     OW 1505   2.116   1.658   1.719 -0.1035  0.4724 -0.1037
  564SOL    HW1 1506   2.130   1.567   1.691  0.2964  0.3578  0.4571
  564SOL    HW2 1507   2.166   1.666   1.800 -1.2233  0.8036  0.5741
  565SOL     OW 1508   1.106   1.904   0.690 -0.1829 -0.6571 -0.2640
  565SOL    HW1 1509   1.105   1.811   0.713 -0.3645 -0.3004  1.2560
  565SOL    HW2 1510   1.028   1.940   0.733 -1.7046 -0.2651 -3.0773
  566SOL     OW 1511   0.559   0.631   0.246 -0.3329 -0.2564 -0.0042
  566SOL    HW1 1512   0.500   0.609   0.319  0.9173 -1.9111  0.5554
  566SOL    HW2 1513   0.510   0.606   0.168 -0.3218 -1.9007  0.4673
  567SOL     OW 1514   0.005   1.043   0.646 -0.3410 -0.1386  0.1546
  567SOL    HW1 1515   0.079   1.044   0.585  0.9092  0.1443  1.6160
  567SOL    HW2 1516   0.045   1.038   0.732 -2.0914 -1.6488  0.9452
  568SOL     OW 1517   1.410   1.340   2.249 -0.2556 -0.3110 -0.1374
  568SOL    HW1 1518   1.414   1.349   2.344 -0.4711 -2.1935  0.1042
  568SOL    HW2 1519   1.497   1.365   2.219 -0.4495  1.1645  0.4319
  569SOL     OW 1520   2.294   0.507   0.270 -0.4281 -0.0471 -0.1396
  569SOL    HW1 1521   2.362   0.549   0.216 -0.0481  0.1346  0.4659
  569SOL    HW2 1522   2.232   0.471   0.207  0.4872 -0.6449 -0.7191
  570SOL     OW 1523   2.178   1.956   2.684 -0.4308 -0.1202  0.2486
  570SOL    HW1 1524   2.264   1.999   2.676  0.0512 -1.3577 -1.9507
  570SOL    HW2 1525   2.115   2.023   2.658  0.1747 -0.1546 -1.4410
  571SOL     OW 1526   3.370   2.639   2.227 -0.0061  0.5480 -0.0537
  571SOL    HW1 1527   3.355   2.568   2.163  0.3080  0.5197 -0.0963
  571SOL    HW2 1528   3.286   2.685   2.231 -0.2435  0.1104  0.0499
  572SOL     OW 1529   1.353   0.557   3.360 -0.2241 -0.1501 -0.0524
  572SOL    HW1 1530   1.392   0.556   3.447 -0.2654  0.6750 -0.0187
  572SOL    HW2 1531   1.286   0.489   3.363  0.6418 -1.0102  0.1481
  573SOL     OW 1532   1.238   1.058   1.005  0.3083 -0.2865 -0.8922
  573SOL    HW1 1533   1.298   0.988   1.029 -0.8705 -0.9964  0.1414
  573SOL    HW2 1534   1.269   1.135   1.053 -0.5171 -1.0579  0.9777
  574SOL     OW 1535   3.204   0.526   1.920  0.3927  0.0752 -0.0029
  574SOL    HW1 1536   3.208   0.601   1.861 -0.4931 -0.0707 -0.2760
  574SOL    HW2 1537   3.128   0.476   1.888 -1.5539  1.1452  2.5839
  575SOL     OW 1538   1.909   1.252   2.790  0.5241  0.0493 -0.7901
  575SOL    HW1 1539   1.974   1.310   2.751  0.9218 -0.2951 -0.6455
  575SOL    HW2 1540   1.856   1.310   2.845 -0.2965  0.6142 -2.1280
  576SOL     OW 1541   0.261   2.059   2.322  0.3310 -0.7380 -1.0050
  576SOL    HW1 1542   0.290   2.036   2.234  4.0166  1.1458 -0.4744
  576SOL    HW2 1543   0.230   2.150   2.313 -1.3362 -1.2254 -0.6481
  577SOL     OW 1544   0.562   2.170   2.955 -0.8154  0.5061  0.5893
  577SOL    HW1 1545   0.550   2.158   2.861 -1.6745  3.2202  0.2658
  577SOL    HW2 1546   0.656   2.159   2.968 -0.7984 -0.7999 -0.3958
  578SOL     OW 1547   1.158   0.323   3.368 -0.1730 -0.0921  0.5341
  578SOL    HW1 1548   1.183   0.265   3.441 -2.0946 -2.5583 -0.6138
  578SOL    HW2 1549   1.207   0.289   3.293 -1.6715 -0.5792 -0.2557
  579SOL     OW 1550   1.389   1.532   1.825 -0.1599  0.1865 -0.0403
  579SOL    HW1 1551   1.441   1.478   1.766 -0.2296 -0.6284  0.6247
  579SOL    HW2 1552   1.308   1.482   1.839  0.7109 -0.6769  2.3836
  580SOL     OW 1553   2.073   1.011   2.183 -0.1834 -0.2651  0.3571
  580SOL    HW1 1554   2.006   1.004   2.115  0.5638  1.0039 -0.5611
  580SOL    HW2 1555   2.076   0.925   2.224  1.0920 -1.9008 -2.8740
  581SOL     OW 1556   2.756   2.938   1.222 -0.3190  0.0467 -0.0100
  581SOL    HW1 1557   2.754   2.892   1.306 -0.1660 -0.4799 -0.2885
  581SOL    HW2 1558   2.665   2.940   1.193 -0.1024 -2.0078 -1.0098
  582SOL     OW 1559   2.486   1.600   1.570 -0.3241 -0.4884 -0.1343
  582SOL    HW1 1560   2.484   1.505   1.568  0.2400 -0.7704  3.6351
  582SOL    HW2 1561   2.579   1.622   1.575 -0.4887 -0.0506  2.2121
  583SOL     OW 1562   0.618   1.363   1.241 -0.0485 -0.0093  0.1260
  583SOL    HW1 1563   0.626   1.280   1.289 -1.9277  0.3749  1.2155
  583SOL    HW2 1564   0.598   1.428   1.309 -1.7518  0.7427 -1.0205
  584SOL     OW 1565   0.430   1.625   2.060 -0.1740  0.7746  0.0780
  584SOL    HW1 1566   0.416   1.534   2.087  0.7002  0.1222 -1.5198
  584SOL    HW2 1567   0.449   1.672   2.142  0.4883 -0.7144  0.8125
  585SOL     OW 1568   2.473   0.065   0.466 -0.2043 -0.0098  0.4083
  585SOL    HW1 1569   2.548   0.074   0.524 -0.6848 -2.6536  1.6274
  585SOL    HW2 1570   2.486  -0.020   0.423 -1.6715  0.2428 -0.6285
  586SOL     OW 1571   0.849   1.913   1.141 -0.0555 -0.1190  0.1843
  586SOL    HW1 1572   0.806   1.966   1.209  1.4402  2.4922 -0.7297
  586SOL    HW2 1573   0.919   1.867   1.187 -0.9727 -0.8311  0.8970
  587SOL     OW 1574   0.043   1.937   2.003 -0.3405  0.4397  0.1848
  587SOL    HW1 1575   0.115   1.952   1.942 -0.3504  0.2786  0.1318
  587SOL    HW2 1576   0.056   1.847   2.034 -1.4772 -0.2468 -1.1501
  588SOL     OW 1577   1.735   2.790   1.821 -0.6135 -0.0387  0.7828
  588SOL    HW1 1578   1.718   2.725   1.890  0.0322 -1.2295 -0.1268
  588SOL    HW2 1579   1.660   2.782   1.762 -1.4671  1.4096  1.6308
  589SOL     OW 1580   0.707   2.593   0.700 -0.0994 -0.2460 -0.3603
  589SOL    HW1 1581   0.787   2.572   0.749 -1.7422  0.1287  2.6858
  589SOL    HW2 1582   0.638   2.597   0.766 -2.1773  2.2819 -2.4422
  590SOL     OW 1583   3.379   0.129   2.697  0.3234  0.4594 -0.2898
  590SOL    HW1 1584   3.361   0.217   2.667  1.1260 -0.1221 -2.6363
  590SOL    HW2 1585   3.310   0.075   2.658 -0.9006  0.1450  2.1091
  591SOL     OW 1586   0.087   3.143   2.551 -0.3675  0.1113  0.5591
  591SOL    HW1 1587   0.116   3.220   2.503 -0.8883 -1.4941 -2.5979
  591SOL    HW2 1588  -0.009   3.151   2.554 -0.5188 -0.8726 -0.7702
  592SOL     OW 1589   2.795   0.669   2.007 -0.0631  0.1346  0.2816
  592SOL    HW1 1590   2.701   0.673   2.024 -0.4741 -1.1459 -1.4206
  592SOL    HW2 1591   2.810   0.580   1.976  2.0180 -0.1828  2.0509
  593SOL     OW 1592   0.860   2.617   2.309 -0.2035 -0.1466  0.0863
  593SOL    HW1 1593   0.785   2.653   2.260  0.3660  1.6336  0.4405
  593SOL    HW2 1594   0.926   2.686   2.304  1.4878 -1.7457 -0.3394
  594SOL     OW 1595   3.364   1.041   2.671 -0.0871  0.4057  0.2384
  594SOL    HW1 1596   3.355   1.069   2.763  2.0770  0.4342  0.4804
  594SOL    HW2 1597   3.371   1.122   2.622  2.9561  0.4769  0.5861
  595SOL     OW 1598   1.857   2.259   2.978 -0.1221  0.3012 -0.0612
  595SOL    HW1 1599   1.940   2.264   3.025 -0.4493  1.5476  0.4338
  595SOL    HW2 1600   1.791   2.270   3.046 -0.7116 -0.8480 -0.4276
  596SOL     OW 1601   0.446   3.181   3.224  0.7406 -0.3202  0.0648
  596SOL    HW1 1602   0.449   3.247   3.155 -0.2809 -1.5942 -1.2466
  596SOL    HW2 1603   0.359   3.191   3.263  0.3794 -1.2292 -0.4946
  597SOL     OW 1604   2.421   3.005   1.865  0.2664 -0.0303  1.0723
  597SOL    HW1 1605   2.451   2.924   1.906 -0.3565 -1.8484 -1.7986
  597SOL    HW2 1606   2.485   3.023   1.796 -1.0196  0.4092 -0.0550
  598SOL     OW 1607   3.005   2.779   3.197  0.0713 -0.1704 -0.0156
  598SOL    HW1 1608   2.935   2.726   3.160 -1.2332  0.2655  1.7285
  598SOL    HW2 1609   3.082   2.723   3.192 -0.7667 -1.3331 -0.3315
  599SOL     OW 1610   0.173   3.370   1.781 -0.2058  0.0344 -0.4888
  599SOL    HW1 1611   0.143   3.330   1.699  0.2885  0.4327 -0.8683
  599SOL    HW2 1612   0.101   3.426   1.808 -0.4876 -0.3198 -0.4986
  600SOL     OW 1613   2.562   1.644   2.233 -0.1027 -0.3421 -0.0537
  600SOL    HW1 1614   2.547   1.551   2.250  1.4191 -1.1011 -2.3968
  600SOL    HW2 1615   2.647   1.663   2.273 -0.5464  0.1557  0.6843
  601SOL     OW 1616   2.570   3.176   0.351  0.0673 -0.0838  0.3200
  601SOL    HW1 1617   2.634   3.112   0.319  2.0712  0.3952  2.9876
  601SOL    HW2 1618   2.618   3.259   0.352 -1.7517  1.0606 -0.8535
  602SOL     OW 1619   2.196   3.207   1.914  0.0278  0.4294  0.1252
  602SOL    HW1 1620   2.248   3.269   1.965  0.2787  0.4257 -0.1200
  602SOL    HW2 1621   2.259   3.138   1.891  0.6831  1.7969 -2.5819
  603SOL     OW 1622   2.694   1.787   0.581 -0.5116 -0.1659  0.1731
  603SOL    HW1 1623   2.614   1.816   0.537  0.4294 -0.4696 -1.8191
  603SOL    HW2 1624   2.663   1.722   0.645 -2.0098  0.9778  0.6765
  604SOL     OW 1625   2.420   1.359   0.549 -0.1624  0.1655 -0.2376
  604SOL    HW1 1626   2.438   1.309   0.628  0.9126  0.8721 -0.0128
  604SOL    HW2 1627   2.505   1.366   0.505 -0.2864  1.6873 -0.3118
  605SOL     OW 1628   0.848   1.878   1.671  0.1387  0.7507 -0.1233
  605SOL    HW1 1629   0.918   1.904   1.732  1.0016 -4.0711  1.3474
  605SOL    HW2 1630   0.769   1.877   1.725 -0.2775  2.0179 -0.6732
  606SOL     OW 1631   0.311   3.356   1.286  0.0395 -0.5871  0.0780
  606SOL    HW1 1632   0.403   3.336   1.303  0.6211  1.5803 -0.2159
  606SOL    HW2 1633   0.269   3.348   1.371  0.4222 -1.7804  0.1827
  607SOL     OW 1634   2.670   1.918   0.191  0.2330  0.3333 -0.3875
  607SOL    HW1 1635   2.632   1.999   0.226 -1.3403 -0.7371  0.5105
  607SOL    HW2 1636   2.664   1.929   0.096 -0.2464  1.1596 -0.2788
  608SOL     OW 1637   2.223   2.997   0.598 -0.6950 -0.4814  0.1340
  608SOL    HW1 1638   2.266   3.029   0.678  2.9330 -0.6359 -1.5479
  608SOL    HW2 1639   2.206   3.077   0.548 -0.1396 -0.5711 -0.2019
  609SOL     OW 1640   1.677   3.211   3.226  0.1777 -0.2442 -0.5305
  609SOL    HW1 1641   1.668   3.126   3.268 -0.0617 -0.2086 -0.5101
  609SOL    HW2 1642   1.587   3.237   3.204  0.2978 -0.2682 -1.0656
  610SOL     OW 1643   1.463   0.970   0.136  0.5608  0.1449  0.1930
  610SOL    HW1 1644   1.482   1.016   0.217 -0.0437 -0.8175  0.8997
  610SOL    HW2 1645   1.518   0.892   0.139  0.6512  0.1793 -0.3999
  611SOL     OW 1646   2.777   1.697   2.391  0.2581 -0.1866  0.0561
  611SOL    HW1 1647   2.866   1.662   2.395  0.1865 -0.3447  0.3086
  611SOL    HW2 1648   2.760   1.728   2.480 -0.2586 -0.9423  0.2297
  612SOL     OW 1649   1.027   2.502   2.841  0.0322 -0.4329  0.3070
  612SOL    HW1 1650   0.958   2.438   2.822  1.4521 -1.9182 -0.1146
  612SOL    HW2 1651   1.105   2.466   2.799  1.4064  0.4458  1.9880
  613SOL     OW 1652   1.004   2.648   2.034 -0.2187  0.1691  0.1481
  613SOL    HW1 1653   0.924   2.596   2.039 -0.1264 -0.1967 -1.6443
  613SOL    HW2 1654   0.981   2.732   2.073 -1.3542 -0.0725  0.0226
  614SOL     OW 1655   3.087   2.125   2.141  0.0973 -0.0109  0.3878
  614SOL    HW1 1656   3.182   2.133   2.149  0.1764 -0.6964  0.2571
  614SOL    HW2 1657   3.071   2.119   2.047 -0.2445  1.7928  0.3039
  615SOL     OW 1658   1.424   0.258   3.271 -0.4980  0.1121 -0.1798
  615SOL    HW1 1659   1.484   0.197   3.229  3.0049  1.8076  1.9165
  615SOL    HW2 1660   1.439   0.341   3.227 -1.2253  0.6217  0.4992
  616SOL     OW 1661   0.749   1.775   2.530  0.1015 -0.1609  0.1150
  616SOL    HW1 1662   0.671   1.778   2.475  0.7571 -1.1790 -0.9122
  616SOL    HW2 1663   0.716   1.750   2.617 -0.6979 -0.6902 -0.3295
  617SOL     OW 1664   2.986   1.328   3.182 -0.3391  0.1449  0.0132
  617SOL    HW1 1665   2.955   1.266   3.248  0.6445 -0.5467 -0.1521
  617SOL    HW2 1666   3.081   1.317   3.182 -0.3017  0.3530 -1.3129
  618SOL     OW 1667   2.475   2.491   2.083  0.0886  0.0193 -0.2198
  618SOL    HW1 1668   2.521   2.547   2.145 -0.7817  0.3640  0.1390
  618SOL    HW2 1669   2.482   2.403   2.120 -0.0863  0.1654  0.1702
  619SOL     OW 1670   2.974   2.664   0.098 -0.1742 -0.7229  0.0176
  619SOL    HW1 1671   2.996   2.714   0.020 -1.5340 -0.0255  0.0653
  619SOL    HW2 1672   2.979   2.727   0.170 -2.0993 -0.5419  0.0490
  620SOL     OW 1673   0.728   2.961   1.968 -1.0255 -0.0878  0.5441
  620SOL    HW1 1674   0.722   3.052   1.940 -0.4618  0.1304  1.0907
  620SOL    HW2 1675   0.698   2.910   1.893 -0.0336  0.4938 -0.2702
  621SOL     OW 1676   2.808   3.182   0.610 -0.2299 -0.2136 -0.1946
  621SOL    HW1 1677   2.814   3.222   0.697 -2.2731  2.9175 -1.2988
  621SOL    HW2 1678   2.733   3.123   0.616 -0.5670  0.2418  0.0973
  622SOL     OW 1679   0.055   1.058   2.962  0.0180  0.4327  0.1454
  622SOL    HW1 1680   0.125   1.123   2.956 -0.4392  1.1772  2.1040
  622SOL    HW2 1681   0.093   0.986   3.014 -0.3262  0.3725  0.3173
  623SOL     OW 1682   1.789   1.854   1.062  0.0099  0.2333  0.0749
  623SOL    HW1 1683   1.716   1.793   1.052  0.0805  0.1482  0.0781
  623SOL    HW2 1684   1.859   1.802   1.103  0.0526  0.3290  0.1255
  624SOL     OW 1685   3.187   0.362   0.875 -0.1321 -0.2014 -0.5073
  624SOL    HW1 1686   3.121   0.428   0.853 -0.3290 -1.1538 -3.1604
  624SOL    HW2 1687   3.156   0.282   0.833  1.4928 -1.2980  0.2767
  625SOL     OW 1688   0.876   0.577   1.789 -0.0133 -0.0929  1.0125
  625SOL    HW1 1689   0.817   0.579   1.714  1.0836 -0.6257  0.1154
  625SOL    HW2 1690   0.825   0.617   1.860 -0.5003  1.9242 -0.3940
  626SOL     OW 1691   1.043   2.933   0.402 -0.0987  0.1916  0.0356
  626SOL    HW1 1692   1.081   2.967   0.322 -0.2246  3.9574  1.3845
  626SOL    HW2 1693   1.111   2.942   0.468 -0.8147 -0.4054  0.8945
  627SOL     OW 1694   0.222   1.448   1.268  0.3804  0.0600 -0.1857
  627SOL    HW1 1695   0.143   1.405   1.233 -0.3156  0.2472  1.1016
  627SOL    HW2 1696   0.294   1.393   1.237 -0.1184  0.5977 -2.4744
  628SOL     OW 1697   3.029   0.873   0.061  0.2893  0.2258  0.6230
  628SOL    HW1 1698   2.983   0.794   0.091 -2.1580  1.9047  1.6429
  628SOL    HW2 1699   3.015   0.874  -0.034 -0.3261 -0.1674  0.7024
  629SOL     OW 1700   2.289   0.703   0.906  0.4210  0.2276  0.3058
  629SOL    HW1 1701   2.242   0.632   0.949 -0.7700  1.4213  1.0419
  629SOL    HW2 1702   2.243   0.715   0.823 -0.5955  1.3497  0.9965
  630SOL     OW 1703   2.145   1.425   0.100  0.1618  0.1021 -0.5843
  630SOL    HW1 1704   2.150   1.330   0.093  0.7021  0.1150 -0.4665
  630SOL    HW2 1705   2.237   1.453   0.099  0.0231  0.5824 -0.1510
  631SOL     OW 1706   1.897   0.931   1.994 -0.5357 -0.4901 -0.3380
  631SOL    HW1 1707   1.810   0.938   2.035 -0.0360  2.0677  0.4963
  631SOL    HW2 1708   1.879   0.932   1.900 -1.4371  1.8770 -0.2266
  632SOL     OW 1709   0.371   2.132   1.477 -0.3322  0.7439  0.0109
  632SOL    HW1 1710   0.337   2.043   1.472 -1.2079  1.0929 -3.7396
  632SOL    HW2 1711   0.293   2.188   1.483  0.1918  1.3469  1.9666
  633SOL     OW 1712   1.791   1.115   0.715  0.2238  0.0812  0.4379
  633SOL    HW1 1713   1.703   1.133   0.748  0.3547  1.7591 -0.0733
  633SOL    HW2 1714   1.838   1.198   0.724  0.8073  0.1289 -2.2485
  634SOL     OW 1715   0.773   0.781   0.174 -0.0686  0.1511  0.3010
  634SOL    HW1 1716   0.693   0.736   0.201 -1.4850  0.8272 -2.3772
  634SOL    HW2 1717   0.815   0.721   0.113 -0.4885  1.2211 -1.0984
  635SOL     OW 1718   0.507   0.263   3.134 -0.0993 -0.3682 -0.0272
  635SOL    HW1 1719   0.514   0.359   3.138 -0.5524 -0.3561  0.5829
  635SOL    HW2 1720   0.571   0.237   3.068 -0.7155  0.4369 -0.9634
  636SOL     OW 1721   3.188   0.390   1.457 -0.2389 -0.2114 -0.1192
  636SOL    HW1 1722   3.239   0.382   1.377  0.9120  0.4537  0.5120
  636SOL    HW2 1723   3.097   0.392   1.428  0.1922  2.9449 -1.7166
  637SOL     OW 1724   1.464   1.838   0.310 -0.4087 -0.0313  0.2871
  637SOL    HW1 1725   1.468   1.877   0.223  0.7591  1.2124  0.8579
  637SOL    HW2 1726   1.389   1.778   0.307  0.8018 -1.5733 -2.1756
  638SOL     OW 1727   2.181   0.295   3.014 -0.4057 -0.5912  0.0302
  638SOL    HW1 1728   2.138   0.210   3.019  1.1459 -1.6045 -2.1303
  638SOL    HW2 1729   2.159   0.328   2.927  2.1251 -0.6545 -0.7216
  639SOL     OW 1730   1.802   1.896   0.733 -0.2783  0.0363 -0.3307
  639SOL    HW1 1731   1.789   1.931   0.821  1.0370  1.7295 -0.7626
  639SOL    HW2 1732   1.716   1.904   0.691 -0.6058  0.3827  0.3935
  640SOL     OW 1733   1.689   1.362   2.922 -0.1128  0.0483 -0.2032
  640SOL    HW1 1734   1.594   1.373   2.930 -0.4209 -1.1789 -1.7230
  640SOL    HW2 1735   1.725   1.425   2.984 -1.9290 -0.4231  1.4383
  641SOL     OW 1736   1.564   2.938   2.696  0.1725 -0.2104  0.1337
  641SOL    HW1 1737   1.588   3.023   2.732 -0.5393 -0.3239  0.9020
  641SOL    HW2 1738   1.589   2.875   2.764  1.3417 -0.6998 -0.7085
  642SOL     OW 1739   1.968   1.841   1.816  0.1812 -0.5200 -0.1678
  642SOL    HW1 1740   2.023   1.765   1.799  0.8061  0.0337 -0.6449
  642SOL    HW2 1741   1.929   1.862   1.731  1.8944  1.1502 -0.5832
  643SOL     OW 1742   1.850   0.075   1.857 -1.2638  0.3254  0.0420
  643SOL    HW1 1743   1.889   0.010   1.916 -0.5846  0.8632  0.1928
  643SOL    HW2 1744   1.922   0.099   1.798 -1.3398  1.3806  0.3643
  644SOL     OW 1745   2.594   2.417   1.849  0.2799  0.4554  0.2728
  644SOL    HW1 1746   2.630   2.331   1.871 -0.1825  0.3419  0.5899
  644SOL    HW2 1747   2.531   2.435   1.919 -0.2294  0.6872 -0.2415
  645SOL     OW 1748   1.618   1.091   2.070  0.1382  0.8581  0.2874
  645SOL    HW1 1749   1.576   1.169   2.106 -1.6285 -0.4677  1.2629
  645SOL    HW2 1750   1.613   1.103   1.975 -3.8375  0.1829  0.2763
  646SOL     OW 1751   2.069   0.933   1.667 -0.0830  0.4733 -0.1258
  646SOL    HW1 1752   2.073   0.872   1.594 -2.7849 -0.6113  0.4909
  646SOL    HW2 1753   2.114   0.888   1.739 -1.8138 -0.7542  0.2436
  647SOL     OW 1754   1.235   0.248   1.562 -0.2992  0.1493 -0.6188
  647SOL    HW1 1755   1.204   0.248   1.471 -4.0676 -2.2509  0.4739
  647SOL    HW2 1756   1.183   0.316   1.605  2.1011  1.9181 -0.2604
  648SOL     OW 1757   2.018   3.273   2.750  0.5915  0.0973 -0.2821
  648SOL    HW1 1758   1.946   3.290   2.810  1.3556 -0.0014  0.6926
  648SOL    HW2 1759   2.057   3.192   2.782  0.3853 -0.5377 -1.5489
  649SOL     OW 1760   0.165   3.132   2.920  0.5636  0.1896  0.2616
  649SOL    HW1 1761   0.182   3.040   2.939  1.3765  0.3538  0.3402
  649SOL    HW2 1762   0.216   3.151   2.841  0.2910  0.5330  0.1639
  650SOL     OW 1763   1.692   2.329   1.095  0.0954 -0.6493  0.0472
  650SOL    HW1 1764   1.740   2.384   1.034  0.4146  0.1351  0.9717
  650SOL    HW2 1765   1.742   2.248   1.099  0.0071 -0.7536 -0.8018
  651SOL     OW 1766   2.095   1.421   2.691 -0.1497 -0.0460  0.5914
  651SOL    HW1 1767   2.090   1.494   2.630 -0.0276  0.2281  0.9025
  651SOL    HW2 1768   2.180   1.380   2.673  0.6049  0.9953  1.6317
  652SOL     OW 1769   2.207   3.129   2.540 -0.3848  0.3970 -0.3724
  652SOL    HW1 1770   2.287   3.168   2.505  0.9015 -1.6715  0.1162
  652SOL    HW2 1771   2.163   3.091   2.464  0.4149 -0.6696 -0.3225
  653SOL     OW 1772   0.092   0.156   2.019  0.0347 -0.5372  0.1323
  653SOL    HW1 1773   0.089   0.251   2.029  1.5902 -0.1863 -2.1220
  653SOL    HW2 1774   0.153   0.126   2.086  0.6165  0.2196 -0.0524
  654SOL     OW 1775   0.826   2.198   1.564  0.6256  0.1987 -1.1618
  654SOL    HW1 1776   0.920   2.181   1.568  0.0584 -3.3204  0.7646
  654SOL    HW2 1777   0.793   2.139   1.496 -0.3027  0.9229 -1.3668
  655SOL     OW 1778   1.953   3.366   0.135  0.3461 -0.2960  0.6398
  655SOL    HW1 1779   1.943   3.271   0.131  1.9988 -0.4584 -0.8138
  655SOL    HW2 1780   2.046   3.381   0.118  0.1350  1.5850  0.9784
  656SOL     OW 1781   2.304   2.887   1.425  0.3724  0.4460  0.1410
  656SOL    HW1 1782   2.327   2.943   1.499 -1.9076  0.6726  0.7528
  656SOL    HW2 1783   2.210   2.872   1.434  0.3985 -1.1938 -1.5957
  657SOL     OW 1784   1.140   2.179   1.118 -0.0673 -1.0875 -0.5491
  657SOL    HW1 1785   1.078   2.222   1.177 -0.0158 -0.7097 -0.7721
  657SOL    HW2 1786   1.153   2.093   1.158  0.8405 -0.4411  0.6252
  658SOL     OW 1787   0.484   0.642   1.469 -0.2700  0.1642 -0.4542
  658SOL    HW1 1788   0.435   0.723   1.480  1.1573  1.0031 -0.0744
  658SOL    HW2 1789   0.477   0.597   1.553 -0.2899  0.3295 -0.3690
  659SOL     OW 1790   1.848   0.769   1.560 -0.0454  0.1155  0.4132
  659SOL    HW1 1791   1.808   0.702   1.505 -0.8372  1.1254 -0.2826
  659SOL    HW2 1792   1.925   0.799   1.511 -0.6199  0.8525 -0.0577
  660SOL     OW 1793   2.823   1.514   1.106  0.0030  0.3713 -0.5830
  660SOL    HW1 1794   2.739   1.551   1.081  0.1458  0.7964 -0.4387
  660SOL    HW2 1795   2.851   1.565   1.182 -0.6346 -1.1901  0.7443
  661SOL     OW 1796   2.918   0.976   2.871 -0.8122 -0.4202 -0.3457
  661SOL    HW1 1797   2.886   1.064   2.892 -0.7229  0.1295 -2.3324
  661SOL    HW2 1798   3.007   0.974   2.904 -0.7692  0.2905 -0.4101
  662SOL     OW 1799   3.257   0.233   1.829 -0.1489  0.1107  0.0492
  662SOL    HW1 1800   3.248   0.140   1.809 -0.9917  0.2087 -0.0878
  662SOL    HW2 1801   3.303   0.235   1.913 -2.1014 -0.5453  1.2195
  663SOL     OW 1802   2.907   2.583   2.323  0.1121 -0.1536  0.1803
  663SOL    HW1 1803   2.920   2.499   2.278 -2.9944  0.0730 -1.4392
  663SOL    HW2 1804   2.871   2.558   2.408  1.8868 -0.4671  0.8852
  664SOL     OW 1805   0.371   2.393   3.111  0.1455  0.3712 -0.5777
  664SOL    HW1 1806   0.382   2.372   3.204  0.0030 -0.4547 -0.7326
  664SOL    HW2 1807   0.440   2.343   3.067 -1.0533 -0.9193 -1.0897
  665SOL     OW 1808   0.233   1.476   1.706 -0.1893 -0.0859  0.2153
  665SOL    HW1 1809   0.162   1.438   1.655  0.0411 -1.8828  1.1458
  665SOL    HW2 1810   0.189   1.526   1.775 -0.5062  0.5574 -0.4386
  666SOL     OW 1811   0.090   0.431   1.979 -0.0271 -0.1356 -0.4699
  666SOL    HW1 1812   0.012   0.453   1.929 -0.1741 -0.0411 -0.2025
  666SOL    HW2 1813   0.159   0.486   1.942 -0.1506 -0.0127 -0.5196
  667SOL     OW 1814   1.377   3.226   2.876 -0.2084 -0.2662  0.7664
  667SOL    HW1 1815   1.396   3.260   2.788 -2.2421  1.5877  0.9598
  667SOL    HW2 1816   1.307   3.162   2.862 -1.2800  0.7967  1.0907
  668SOL     OW 1817   0.152   2.568   0.410  0.1190  0.0540  0.3316
  668SOL    HW1 1818   0.246   2.558   0.397  0.2790  0.8911  0.8122
  668SOL    HW2 1819   0.113   2.534   0.329  0.7487 -1.6300  0.6933
  669SOL     OW 1820   1.101   1.049   1.279 -0.0607 -0.8208  0.0127
  669SOL    HW1 1821   1.035   1.066   1.212 -0.3955 -0.3576  0.4550
  669SOL    HW2 1822   1.105   0.954   1.285 -2.0147 -0.8730  1.2700
  670SOL     OW 1823   2.105   2.741   2.560  0.0327  0.1746  0.2982
  670SOL    HW1 1824   2.150   2.806   2.506 -0.9374  0.9185  0.3444
  670SOL    HW2 1825   2.170   2.711   2.623  0.6493  0.6928 -0.0846
  671SOL     OW 1826   0.096   0.504   2.252 -0.2417 -0.6014 -0.7256
  671SOL    HW1 1827   0.136   0.589   2.270 -0.0508 -0.8188 -0.1082
  671SOL    HW2 1828   0.073   0.507   2.159 -2.4033  1.0314 -0.2269
  672SOL     OW 1829   2.529   1.054   1.332 -0.0299 -0.4687  0.4223
  672SOL    HW1 1830   2.596   1.109   1.373 -0.1739  1.8349 -2.1462
  672SOL    HW2 1831   2.570   1.020   1.253 -1.4896  0.0700 -0.6147
  673SOL     OW 1832   1.252   2.421   1.440  0.6015 -0.0156 -0.2706
  673SOL    HW1 1833   1.276   2.496   1.495  1.0242 -0.2388 -0.1530
  673SOL    HW2 1834   1.318   2.420   1.371 -1.8483  2.4478 -2.9414
  674SOL     OW 1835   2.336   2.817   2.945 -0.2654 -0.2944  0.0707
  674SOL    HW1 1836   2.406   2.766   2.986 -0.3350  0.6172  1.4019
  674SOL    HW2 1837   2.366   2.908   2.951 -2.0670  0.2663  1.8670
  675SOL     OW 1838   1.782   0.588   2.133 -0.3568 -0.5365  0.1086
  675SOL    HW1 1839   1.798   0.666   2.186 -2.3106  1.2852 -1.7794
  675SOL    HW2 1840   1.840   0.598   2.057 -1.1930 -0.4212 -0.5407
  676SOL     OW 1841   0.602   2.638   3.109 -0.0540 -0.2653  0.0990
  676SOL    HW1 1842   0.506   2.645   3.112  0.0382  1.7196 -0.4833
  676SOL    HW2 1843   0.631   2.670   3.194  0.1432  0.8286 -0.3657
  677SOL     OW 1844   0.134   2.536   1.499 -0.1230 -0.0023 -0.0434
  677SOL    HW1 1845   0.118   2.547   1.406 -1.6724  0.6246  0.2525
  677SOL    HW2 1846   0.227   2.554   1.510 -0.1381  1.0447 -1.3236
  678SOL     OW 1847   0.710   1.233   0.161 -0.1480  0.2543 -0.1060
  678SOL    HW1 1848   0.708   1.152   0.111  1.3891  0.2143 -0.1397
  678SOL    HW2 1849   0.757   1.295   0.105 -0.7652  0.9944  0.1735
  679SOL     OW 1850   1.691   1.671   3.262  0.5811 -0.0312  0.4894
  679SOL    HW1 1851   1.766   1.676   3.203  0.0337 -0.7871 -0.2847
  679SOL    HW2 1852   1.728   1.689   3.349  1.4000  1.0467 -0.0590
  680SOL     OW 1853   2.066   2.266   2.313 -0.6169  0.6836  0.5889
  680SOL    HW1 1854   2.034   2.224   2.233  0.6060  2.0838 -0.7122
  680SOL    HW2 1855   2.140   2.212   2.340 -0.9712  0.2618  0.7233
  681SOL     OW 1856   0.572   0.130   0.517  0.2749 -0.1894  0.0847
  681SOL    HW1 1857   0.543   0.043   0.489  0.5144 -0.7761  1.6048
  681SOL    HW2 1858   0.491   0.181   0.525  0.1878  0.0131 -1.5799
  682SOL     OW 1859   2.477   3.085   1.562  0.0560 -0.1965 -0.1505
  682SOL    HW1 1860   2.546   3.151   1.555  0.2685 -0.6041 -4.0484
  682SOL    HW2 1861   2.523   3.001   1.558 -0.5021 -0.4752 -3.0443
  683SOL     OW 1862   0.239   0.068   0.036  0.0518 -0.3613  0.2013
  683SOL    HW1 1863   0.216   0.021   0.116 -2.6186  0.3198 -0.0665
  683SOL    HW2 1864   0.210   0.009  -0.035  1.2432 -0.4170 -0.2584
  684SOL     OW 1865   1.649   1.395   3.309 -0.0658 -0.6111 -0.1127
  684SOL    HW1 1866   1.743   1.398   3.297 -0.1179 -0.2898 -0.4634
  684SOL    HW2 1867   1.618   1.483   3.283 -0.2452 -0.0373  1.8773
  685SOL     OW 1868   0.133   2.484   1.216 -0.4987  0.2115 -0.0433
  685SOL    HW1 1869   0.229   2.489   1.214 -0.5137  3.9641  1.1289
  685SOL    HW2 1870   0.107   2.484   1.124  0.5865 -0.1108 -0.3639
  686SOL     OW 1871   3.215   1.011   2.433 -0.1931  0.3752  0.0791
  686SOL    HW1 1872   3.235   0.990   2.524  0.3370  0.6437  0.0294
  686SOL    HW2 1873   3.282   0.965   2.383  0.0375  0.9239 -0.1200
  687SOL     OW 1874   0.857   0.225   0.930 -0.2441  0.0647  0.1080
  687SOL    HW1 1875   0.793   0.234   0.860  1.0687  1.5614 -0.9804
  687SOL    HW2 1876   0.922   0.164   0.895 -0.5071 -0.6182  0.7785
  688SOL     OW 1877   2.052   1.143   2.536 -0.6289 -0.2698 -0.0505
  688SOL    HW1 1878   2.017   1.196   2.607 -0.9083 -0.3381 -0.1337
  688SOL    HW2 1879   2.004   1.060   2.542  0.8264 -1.0698  0.9805
  689SOL     OW 1880   2.149   1.604   3.122  0.1583  0.3869 -0.6574
  689SOL    HW1 1881   2.101   1.670   3.173 -3.3367 -1.2511 -1.5517
  689SOL    HW2 1882   2.142   1.635   3.031  0.9334  0.1427 -0.8080
  690SOL     OW 1883   0.382   1.804   2.532 -0.1226  0.3074  0.4457
  690SOL    HW1 1884   0.440   1.801   2.456 -1.1177 -1.0468 -0.3234
  690SOL    HW2 1885   0.294   1.801   2.495 -0.6350 -1.6899  1.6317
  691SOL     OW 1886   0.313   3.035   2.653 -0.1015  0.1387 -0.5525
  691SOL    HW1 1887   0.331   2.958   2.600  1.5127  0.1993 -0.1685
  691SOL    HW2 1888   0.271   3.096   2.593  1.0824 -0.0355 -1.6205
  692SOL     OW 1889   2.697   0.277   1.033  0.1770 -0.0704  0.4871
  692SOL    HW1 1890   2.717   0.292   1.126 -1.2453 -0.2216  0.8495
  692SOL    HW2 1891   2.782   0.278   0.990  0.9556 -0.8697  1.9145
  693SOL     OW 1892   2.485   0.319   0.375 -0.2467 -0.0470  0.0964
  693SOL    HW1 1893   2.455   0.237   0.414 -2.0525  0.9325  0.8835
  693SOL    HW2 1894   2.406   0.374   0.370  0.6887  1.2469 -1.4475
  694SOL     OW 1895   0.279   0.040   2.802 -0.1672  0.2116  0.0183
  694SOL    HW1 1896   0.215   0.098   2.763 -1.0773 -0.0608  1.0715
  694SOL    HW2 1897   0.321  -0.003   2.727 -0.0367  1.5980 -0.7350
  695SOL     OW 1898   0.940   0.327   0.294 -0.2376  0.0819  0.0497
  695SOL    HW1 1899   0.857   0.344   0.250 -0.3486 -0.2061  0.1477
  695SOL    HW2 1900   0.979   0.254   0.246  0.3517  0.7583 -0.5214
  696SOL     OW 1901   0.953   1.135   0.450  0.3522  0.2057  0.1141
  696SOL    HW1 1902   1.030   1.131   0.507  0.7127  0.6817 -0.3156
  696SOL    HW2 1903   0.966   1.063   0.388  0.1812 -0.0446  0.3715
  697SOL     OW 1904   1.136   0.358   2.524  0.0208 -0.1176  0.1372
  697SOL    HW1 1905   1.109   0.392   2.439 -0.1626 -0.6277 -0.0111
  697SOL    HW2 1906   1.186   0.279   2.503  2.2149  1.1316  0.3491
  698SOL     OW 1907   3.312   1.599   1.952  0.7977  0.5514  0.3822
  698SOL    HW1 1908   3.315   1.507   1.977  1.5778 -0.0075 -1.5799
  698SOL    HW2 1909   3.404   1.627   1.952  0.5505  1.4416  1.2400
  699SOL     OW 1910   2.632   3.084   0.893 -0.0823  0.2945  0.1397
  699SOL    HW1 1911   2.588   3.071   0.809 -0.6933 -2.1380  0.7722
  699SOL    HW2 1912   2.710   3.028   0.889 -0.2584 -0.0584  1.2735
  700SOL     OW 1913   2.773   3.040   2.178  0.4510 -0.2846  0.2054
  700SOL    HW1 1914   2.793   3.119   2.229 -1.6808  0.0375  0.6286
  700SOL    HW2 1915   2.838   3.040   2.108  1.6762  0.7996  1.2658
  701SOL     OW 1916   2.338   3.091   0.850  0.0366 -0.3239  0.4639
  701SOL    HW1 1917   2.311   3.042   0.928 -0.0568 -1.1612 -0.0897
  701SOL    HW2 1918   2.417   3.137   0.878  0.1845 -0.8688  0.9672
  702SOL     OW 1919   2.827   2.248   1.668  0.5084  0.2331  0.2395
  702SOL    HW1 1920   2.826   2.210   1.756  0.3565 -2.1557 -0.7335
  702SOL    HW2 1921   2.735   2.246   1.641  0.8529 -1.6669 -0.9761
  703SOL     OW 1922   2.772   0.581   3.354 -0.1403 -0.2323 -0.1610
  703SOL    HW1 1923   2.847   0.568   3.412 -0.1268  0.3955 -0.0349
  703SOL    HW2 1924   2.739   0.493   3.337 -0.1670 -0.4247  0.8233
  704SOL     OW 1925   0.027   3.165   2.176 -0.3807 -0.0901  0.3372
  704SOL    HW1 1926   0.083   3.159   2.099 -0.7947  1.1765 -0.0840
  704SOL    HW2 1927   0.057   3.094   2.233 -0.2918 -1.2672 -1.1122
  705SOL     OW 1928   1.130   0.653   1.445 -0.0298 -0.7090 -0.2262
  705SOL    HW1 1929   1.124   0.567   1.486  1.5270 -0.6939  0.0853
  705SOL    HW2 1930   1.104   0.638   1.354 -2.4891 -0.9389  0.4406
  706SOL     OW 1931   0.832   3.174   2.576 -0.0382  0.4261 -0.3283
  706SOL    HW1 1932   0.809   3.082   2.589 -0.5498  0.4478 -1.0792
  706SOL    HW2 1933   0.798   3.197   2.490  1.9197  0.7305 -1.0935
  707SOL     OW 1934   2.072   2.344   0.464 -0.3108 -0.5431  0.1080
  707SOL    HW1 1935   2.074   2.377   0.374 -1.8160 -2.4132 -0.6608
  707SOL    HW2 1936   1.985   2.366   0.496  0.0443 -0.3273  0.9595
  708SOL     OW 1937   0.476   1.313   2.513  0.3529 -0.2106  1.0124
  708SOL    HW1 1938   0.459   1.315   2.419 -1.0553  0.8053  1.2483
  708SOL    HW2 1939   0.556   1.364   2.525  0.1200  0.2922  0.4370
  709SOL     OW 1940   0.520   2.167   1.725 -0.5577 -0.8207 -0.5570
  709SOL    HW1 1941   0.478   2.168   1.639  0.3945  2.4970 -1.1107
  709SOL    HW2 1942   0.585   2.097   1.719  0.1588 -0.0543 -2.9327
  710SOL     OW 1943   0.713   3.231   1.928 -0.3108  0.3517  0.4698
  710SOL    HW1 1944   0.700   3.266   2.016 -0.5793  1.7785 -0.1256
  710SOL    HW2 1945   0.809   3.225   1.919 -0.2408  1.4897  0.3749
  711SOL     OW 1946   2.984   1.415   1.934 -0.0042  0.3190 -0.0019
  711SOL    HW1 1947   2.998   1.320   1.944 -0.1233  0.4013  0.9485
  711SOL    HW2 1948   3.024   1.435   1.849 -2.5698 -1.0952 -1.6662
  712SOL     OW 1949   1.438   2.925   3.352 -0.3151  0.8643 -0.2463
  712SOL    HW1 1950   1.350   2.893   3.334 -0.5358 -0.6675  2.8058
  712SOL    HW2 1951   1.426   2.989   3.423  1.0097  0.3914  0.4459
  713SOL     OW 1952   2.096   1.689   2.547 -0.0741  0.1970  0.5923
  713SOL    HW1 1953   2.085   1.696   2.452 -1.2063  0.2252  0.7058
  713SOL    HW2 1954   2.110   1.779   2.576  0.6937  0.1395  0.4100
  714SOL     OW 1955   2.876   1.584   3.127  0.0019 -0.9140  0.0589
  714SOL    HW1 1956   2.935   1.642   3.174 -0.0006 -1.8293  1.2332
  714SOL    HW2 1957   2.907   1.496   3.148 -1.7176 -1.4174  0.6281
  715SOL     OW 1958   2.959   0.207   2.108 -0.7004  0.1216  0.3460
  715SOL    HW1 1959   3.048   0.212   2.073 -0.5420  1.4371  0.8824
  715SOL    HW2 1960   2.905   0.243   2.038 -0.4978  1.7701  0.9928
  716SOL     OW 1961   2.928   0.862   1.133  0.6541 -0.0818  0.8905
  716SOL    HW1 1962   2.836   0.886   1.118  0.5522 -1.0006 -0.0649
  716SOL    HW2 1963   2.957   0.826   1.050  1.5703 -0.7779  1.4997
  717SOL     OW 1964   1.546   2.830   1.584 -0.2274 -0.0885 -0.1771
  717SOL    HW1 1965   1.470   2.840   1.641 -0.8408  0.9843 -1.1344
  717SOL    HW2 1966   1.510   2.832   1.495  0.6283 -2.2987 -0.6491
  718SOL     OW 1967   1.291   1.071   3.094  0.1168 -0.1334 -0.1298
  718SOL    HW1 1968   1.347   1.073   3.016 -0.8089  0.9034 -0.7953
  718SOL    HW2 1969   1.217   1.128   3.072  0.4348  1.2044  1.9596
  719SOL     OW 1970   2.985   0.130   0.960  0.0474  0.0206  0.2216
  719SOL    HW1 1971   3.059   0.147   1.019 -0.4093  0.5078  0.6692
  719SOL    HW2 1972   3.023   0.128   0.873  0.7513 -0.7658  0.5258
  720SOL     OW 1973   1.862   1.747   2.298 -1.1623 -0.0438  0.1153
  720SOL    HW1 1974   1.767   1.739   2.301 -1.0530 -1.4053  0.7712
  720SOL    HW2 1975   1.888   1.695   2.222 -0.8468 -0.9768  0.8429
  721SOL     OW 1976   2.292   2.095   2.338  0.3212  0.2285  0.6286
  721SOL    HW1 1977   2.350   2.107   2.413  1.0321  0.6446  0.0347
  721SOL    HW2 1978   2.283   2.001   2.329  0.1374  0.1775  1.2964
  722SOL     OW 1979   3.061   2.816   1.221 -0.2514 -0.2049  0.6393
  722SOL    HW1 1980   2.972   2.783   1.212  0.5240 -2.2366 -0.0058
  722SOL    HW2 1981   3.115   2.755   1.172  1.6224  0.4675  1.7417
  723SOL     OW 1982   2.328   1.836   1.544  0.5121 -0.1112  0.0092
  723SOL    HW1 1983   2.358   1.922   1.573 -0.0309 -0.2616  1.0765
  723SOL    HW2 1984   2.397   1.776   1.573  0.8228 -0.0656 -0.6105
  724SOL     OW 1985   0.691   1.096   0.626 -0.0275 -0.3832  0.0843
  724SOL    HW1 1986   0.732   1.164   0.572 -0.3229  0.1394  0.5134
  724SOL    HW2 1987   0.764   1.039   0.651  0.1593 -0.4724 -0.6285
  725SOL     OW 1988   0.642   3.132   0.020 -0.1678  0.0520  0.8987
  725SOL    HW1 1989   0.696   3.084  -0.043 -0.1482 -0.4425  1.2821
  725SOL    HW2 1990   0.563   3.154  -0.028  0.0141  0.0311  0.5855
  726SOL     OW 1991   1.827   0.947   0.038 -0.5000 -0.2831 -0.2140
  726SOL    HW1 1992   1.770   0.877   0.070  0.9017 -0.4108  2.3093
  726SOL    HW2 1993   1.774   1.026   0.047 -1.7838 -0.8496 -2.2348
  727SOL     OW 1994   0.874   1.967   0.825 -0.0986  0.2673  0.1467
  727SOL    HW1 1995   0.798   1.947   0.770 -0.2242  1.6807 -0.2269
  727SOL    HW2 1996   0.854   1.925   0.909 -0.8992 -0.0903 -0.2109
  728SOL     OW 1997   1.632   0.525   0.457  0.1412 -0.2226  0.0663
  728SOL    HW1 1998   1.539   0.548   0.468  0.3337  0.4985  0.2229
  728SOL    HW2 1999   1.679   0.597   0.499  0.8119  0.2642 -1.4598
  729SOL     OW 2000   1.976   3.236   3.181  0.1010  0.0945 -0.3991
  729SOL    HW1 2001   1.970   3.247   3.276  2.8393 -0.2995 -0.0992
  729SOL    HW2 2002   1.915   3.165   3.161 -1.6363  1.1681  0.7870
  730SOL     OW 2003   2.150   2.018   1.313  0.2082 -0.2357 -0.0413
  730SOL    HW1 2004   2.112   1.943   1.359  1.0461 -0.7701 -0.1917
  730SOL    HW2 2005   2.243   1.997   1.306  0.1706  0.0193 -1.6215
  731SOL     OW 2006   0.112   0.745   1.725 -0.1667 -0.0899 -0.1464
  731SOL    HW1 2007   0.172   0.746   1.800 -1.8076  0.0793  1.2165
  731SOL    HW2 2008   0.138   0.668   1.675  1.2029 -0.0097  0.3789
  732SOL     OW 2009   1.939   2.650   2.240  0.4143 -0.1627  0.1434
  732SOL    HW1 2010   1.929   2.668   2.333  0.0404  0.6724 -0.0559
  732SOL    HW2 2011   1.945   2.736   2.199  1.1460 -0.5339 -0.5491
  733SOL     OW 2012   1.120   2.499   0.624 -0.2026  0.2924 -0.5565
  733SOL    HW1 2013   1.211   2.471   0.637  0.1658  1.2747 -0.9129
  733SOL    HW2 2014   1.068   2.422   0.645  0.4895  0.6554  3.1595
  734SOL     OW 2015   3.328   3.152   0.731  0.0352 -0.2001 -0.2539
  734SOL    HW1 2016   3.240   3.159   0.768  0.0728 -1.2264  0.0473
  734SOL    HW2 2017   3.327   3.071   0.680 -0.0786  1.2758 -2.7414
  735SOL     OW 2018   0.362   2.758   3.189 -0.1003  0.5898  0.2185
  735SOL    HW1 2019   0.305   2.814   3.137  0.5128  1.0934  0.0694
  735SOL    HW2 2020   0.383   2.810   3.266 -0.6397  0.0226  0.7510
  736SOL     OW 2021   3.032   0.349   3.373 -0.2157  0.6281 -0.0220
  736SOL    HW1 2022   2.991   0.358   3.287 -0.5720 -1.5920 -0.1648
  736SOL    HW2 2023   3.126   0.350   3.354 -0.2621 -1.8052 -0.8015
  737SOL     OW 2024   3.153   0.805   2.114  0.0700  0.5154  0.2528
  737SOL    HW1 2025   3.070   0.847   2.094 -1.2424 -2.0265 -0.0951
  737SOL    HW2 2026   3.175   0.756   2.034  0.3830 -1.1267  1.2907
  738SOL     OW 2027   3.161   1.180   0.732  0.0694 -0.1816 -0.3175
  738SOL    HW1 2028   3.218   1.138   0.667  0.9085  1.4719 -0.7010
  738SOL    HW2 2029   3.164   1.121   0.807  3.1139  0.2932  0.0532
  739SOL     OW 2030   2.826   0.737   2.764 -0.4983 -0.0700 -0.4613
  739SOL    HW1 2031   2.870   0.806   2.814  1.1496 -2.3353  1.4825
  739SOL    HW2 2032   2.745   0.721   2.812 -0.4715 -0.0610 -0.4129
  740SOL     OW 2033   2.044   1.757   0.693 -0.3371  0.0795 -0.6008
  740SOL    HW1 2034   1.956   1.785   0.668  0.0157  1.6024 -0.2334
  740SOL    HW2 2035   2.076   1.826   0.751  0.7445 -0.9245  0.0586
  741SOL     OW 2036   2.728   1.848   1.753 -0.3726  1.0684 -0.5797
  741SOL    HW1 2037   2.671   1.920   1.782 -2.2819  0.1439 -1.8435
  741SOL    HW2 2038   2.710   1.777   1.814 -0.6567  0.7410 -1.0410
  742SOL     OW 2039   2.404   2.788   0.618  0.2213 -0.0343  0.0741
  742SOL    HW1 2040   2.354   2.718   0.575 -1.8337  1.5985 -0.3473
  742SOL    HW2 2041   2.343   2.862   0.622  2.3743  1.8283  0.3042
  743SOL     OW 2042   3.132   0.624   3.206  0.6977 -0.3894 -0.6824
  743SOL    HW1 2043   3.060   0.647   3.148  1.4960  0.7971 -1.2593
  743SOL    HW2 2044   3.210   0.635   3.152  1.3437 -1.1906  0.0590
  744SOL     OW 2045   1.373   0.830   2.724  0.8237 -0.2366  0.5334
  744SOL    HW1 2046   1.384   0.800   2.814  1.5346  0.1702  0.5895
  744SOL    HW2 2047   1.285   0.801   2.700  0.4462  0.0342  1.5102
  745SOL     OW 2048   2.509   0.820   2.519 -0.0120 -0.0903 -0.3597
  745SOL    HW1 2049   2.547   0.875   2.587 -1.3607 -0.8622  1.0718
  745SOL    HW2 2050   2.485   0.882   2.449  1.7793  0.6575 -0.3713
  746SOL     OW 2051   0.420   3.368   2.568  0.0264  0.5470 -0.1826
  746SOL    HW1 2052   0.342   3.398   2.523 -1.5879 -2.0881  0.6345
  746SOL    HW2 2053   0.444   3.287   2.523  0.9539  0.1427  0.9732
  747SOL     OW 2054   2.117   0.712   0.377 -0.1280  0.2954 -1.0116
  747SOL    HW1 2055   2.168   0.644   0.334 -1.1225 -1.7981  0.9407
  747SOL    HW2 2056   2.028   0.701   0.342 -0.3111  0.5334 -0.6313
  748SOL     OW 2057   0.842   2.148   1.840  0.4757  0.0086 -0.1775
  748SOL    HW1 2058   0.787   2.154   1.763 -1.4014  0.9544  1.1648
  748SOL    HW2 2059   0.921   2.103   1.810 -1.8378 -3.4846 -1.7363
  749SOL     OW 2060   0.649   0.424   0.051 -0.3292 -0.0334  0.1762
  749SOL    HW1 2061   0.653   0.394   0.142 -0.1364  0.9370  0.4898
  749SOL    HW2 2062   0.719   0.377   0.007  0.7795  0.8654  0.9423
  750SOL     OW 2063   1.141   2.901   0.946  1.0725  0.2185 -0.6448
  750SOL    HW1 2064   1.174   2.854   0.869 -0.0436 -1.7415  0.0000
  750SOL    HW2 2065   1.054   2.930   0.920  1.7517  2.0621 -1.0384
  751SOL     OW 2066   2.224   2.664   1.071  0.1814  0.1462 -0.4306
  751SOL    HW1 2067   2.157   2.704   1.126  0.3496  2.1686 -1.5932
  751SOL    HW2 2068   2.182   2.586   1.034 -0.8926  0.3695  0.2968
  752SOL     OW 2069   2.683   2.289   0.904 -0.1661 -0.0183 -0.1719
  752SOL    HW1 2070   2.734   2.275   0.824 -0.5050  2.1265 -0.8305
  752SOL    HW2 2071   2.594   2.307   0.872 -0.2683  1.0307  0.6585
  753SOL     OW 2072   2.396   3.300   2.287  0.1356 -0.3448 -0.2796
  753SOL    HW1 2073   2.440   3.319   2.203  0.9128 -0.0895  0.1752
  753SOL    HW2 2074   2.316   3.352   2.284  1.2339  1.4443  0.0541
  754SOL     OW 2075   1.009   1.954   3.158 -0.3093  0.3686  0.7676
  754SOL    HW1 2076   0.981   2.034   3.113  0.8058  0.3300 -0.0324
  754SOL    HW2 2077   1.092   1.978   3.200 -0.0475 -0.3316  0.6540
  755SOL     OW 2078   1.287   2.914   2.679 -0.0995  0.5907 -0.3239
  755SOL    HW1 2079   1.280   2.913   2.774 -0.1106 -1.5268 -0.2975
  755SOL    HW2 2080   1.381   2.913   2.661 -0.0890  1.6233 -0.3523
  756SOL     OW 2081   2.184   2.627   1.814 -0.0668  0.3114  0.6144
  756SOL    HW1 2082   2.183   2.583   1.899  0.5976 -0.9311 -0.0037
  756SOL    HW2 2083   2.137   2.709   1.829 -1.7809 -0.8085  1.6838
  757SOL     OW 2084   1.293   1.846   3.018  0.1342  0.0464 -0.1555
  757SOL    HW1 2085   1.223   1.874   3.078  1.7083  2.3925  0.7231
  757SOL    HW2 2086   1.278   1.896   2.938  1.2859  1.2970  0.3739
  758SOL     OW 2087   0.302   1.257   2.963  0.0405  0.3579 -0.3120
  758SOL    HW1 2088   0.320   1.288   2.874  0.9399  0.0687 -0.2391
  758SOL    HW2 2089   0.370   1.297   3.017 -2.0915  2.7851  0.7716
  759SOL     OW 2090   1.307   3.336   2.267 -0.5148  0.1029 -0.7754
  759SOL    HW1 2091   1.340   3.292   2.189  0.2604 -0.5293 -0.1099
  759SOL    HW2 2092   1.373   3.401   2.288 -1.3749  1.2197 -1.4121
  760SOL     OW 2093   2.402   0.278   3.160 -0.2928 -0.3397  1.2371
  760SOL    HW1 2094   2.431   0.209   3.101 -0.4353  0.3144  0.3834
  760SOL    HW2 2095   2.313   0.297   3.133 -0.5146 -0.3349  1.9568
  761SOL     OW 2096   1.634   1.133   3.331 -0.3138  0.1362 -0.6958
  761SOL    HW1 2097   1.550   1.108   3.370  0.5109 -0.7403  0.5852
  761SOL    HW2 2098   1.613   1.212   3.281 -1.7468  0.4359  0.2804
  762SOL     OW 2099   3.203   2.961   1.612 -0.4280  0.2649  0.1678
  762SOL    HW1 2100   3.114   2.959   1.576 -0.3363  1.2842 -0.1298
  762SOL    HW2 2101   3.191   2.964   1.707 -0.6873 -0.4953  0.1705
  763SOL     OW 2102   0.617   3.077   0.493 -1.1627  0.1337  0.4724
  763SOL    HW1 2103   0.529   3.113   0.490 -1.9855 -1.8306 -0.7126
  763SOL    HW2 2104   0.605   2.984   0.508  0.7703 -0.0442  1.1814
  764SOL     OW 2105   0.183   1.090   1.910 -0.0467 -0.2866 -0.1522
  764SOL    HW1 2106   0.153   1.017   1.965 -1.2725 -0.2529 -0.7385
  764SOL    HW2 2107   0.234   1.145   1.969  0.2503 -1.2168  0.4878
  765SOL     OW 2108   0.407   1.039   1.774 -0.3271 -0.3741 -0.5546
  765SOL    HW1 2109   0.331   1.067   1.826 -0.3318 -1.1682 -0.1205
  765SOL    HW2 2110   0.463   1.116   1.771  0.2185 -0.6294  1.6394
  766SOL     OW 2111   2.863   0.317   1.551  0.1730  0.0028  0.6122
  766SOL    HW1 2112   2.785   0.272   1.519  0.4897 -0.1100 -0.0186
  766SOL    HW2 2113   2.845   0.410   1.537 -0.0434  0.0102  0.9240
  767SOL     OW 2114   1.267   3.343   3.139 -0.4109 -0.1515  0.1585
  767SOL    HW1 2115   1.203   3.376   3.076 -2.2522 -0.2058  1.8874
  767SOL    HW2 2116   1.350   3.380   3.110 -1.6985  2.5190 -0.4496
  768SOL     OW 2117   2.255   3.251   1.652 -0.2069 -0.6108  0.6933
  768SOL    HW1 2118   2.235   3.286   1.739  1.6312 -1.4098  1.4907
  768SOL    HW2 2119   2.321   3.183   1.668  0.7833 -0.2251 -1.3934
  769SOL     OW 2120   1.261   0.320   2.209 -0.0677  0.5303 -0.1442
  769SOL    HW1 2121   1.205   0.252   2.173  1.4473 -0.0583 -1.5313
  769SOL    HW2 2122   1.209   0.400   2.203 -0.7704 -0.0022 -1.3652
  770SOL     OW 2123   0.207   0.175   0.957  0.1354  0.3638 -1.0228
  770SOL    HW1 2124   0.178   0.212   0.874 -0.8796  2.0168  0.0016
  770SOL    HW2 2125   0.195   0.246   1.020 -0.2821 -1.2160  0.7689
  771SOL     OW 2126   1.944   0.284   3.298  0.1635 -0.2058  0.1584
  771SOL    HW1 2127   1.889   0.317   3.369  0.5036 -0.6327  0.6162
  771SOL    HW2 2128   1.924   0.342   3.224 -0.1026  0.3072  0.6299
  772SOL     OW 2129   2.805   0.350   0.183  0.2993 -0.2123 -0.4063
  772SOL    HW1 2130   2.889   0.339   0.138  1.0283 -0.6381  0.9836
  772SOL    HW2 2131   2.741   0.306   0.127  1.1171 -0.4868 -1.1483
  773SOL     OW 2132   1.098   2.378   1.799  0.5135 -0.4903 -0.2179
  773SOL    HW1 2133   1.172   2.428   1.765 -0.1277  1.5162  1.1724
  773SOL    HW2 2134   1.021   2.431   1.777 -0.1240 -0.3974  1.9828
  774SOL     OW 2135   1.039   1.603   1.945  0.5113  0.0154 -0.1673
  774SOL    HW1 2136   1.017   1.515   1.974  0.1181 -0.0598 -0.6819
  774SOL    HW2 2137   1.122   1.623   1.988  0.6876 -0.6719 -0.1823
  775SOL     OW 2138   2.484   0.689   1.821  0.1187 -0.0900  1.1400
  775SOL    HW1 2139   2.500   0.750   1.893 -0.3162  0.9174  0.4214
  775SOL    HW2 2140   2.493   0.743   1.742 -2.4111 -0.4034  0.5419
  776SOL     OW 2141   2.382   1.238   0.250  0.4436 -0.2607  0.2244
  776SOL    HW1 2142   2.381   1.328   0.218 -0.3339 -0.4438 -0.3102
  776SOL    HW2 2143   2.316   1.237   0.320  0.9125 -0.2665  0.6708
  777SOL     OW 2144   2.701   3.298   1.814 -0.0476  0.2334  0.7405
  777SOL    HW1 2145   2.678   3.391   1.813 -1.2456 -0.0258  1.6536
  777SOL    HW2 2146   2.779   3.292   1.759 -1.8217  1.2909 -2.1388
  778SOL     OW 2147   1.283   3.362   0.636  0.4536  0.6335  0.5353
  778SOL    HW1 2148   1.355   3.309   0.669  1.4379 -0.1123 -2.4670
  778SOL    HW2 2149   1.320   3.450   0.630  0.3375  0.7295  1.1359
  779SOL     OW 2150   0.538   0.363   2.485  0.0517  0.0153 -0.1441
  779SOL    HW1 2151   0.630   0.387   2.496 -0.1438  1.6062 -1.5453
  779SOL    HW2 2152   0.492   0.413   2.553  0.2258 -1.1361  0.8611
  780SOL     OW 2153   0.358   0.230   0.274  0.1531 -0.3335  0.4452
  780SOL    HW1 2154   0.271   0.193   0.258  0.1102  0.3499 -1.0877
  780SOL    HW2 2155   0.415   0.182   0.215  0.6986 -0.2657  0.9111
  781SOL     OW 2156   1.086   3.145   1.654  0.2115  0.3340  0.3422
  781SOL    HW1 2157   1.172   3.187   1.647 -0.0101  0.6293 -0.9065
  781SOL    HW2 2158   1.024   3.218   1.650 -0.1495 -0.0125 -0.9433
  782SOL     OW 2159   0.839   0.234   1.576  0.1646 -0.4527  0.4951
  782SOL    HW1 2160   0.761   0.277   1.542  0.7621 -0.3285 -0.7800
  782SOL    HW2 2161   0.843   0.151   1.529  1.2608 -0.0817 -0.1017
  783SOL     OW 2162   3.100   3.379   2.830  0.1608  0.2854  0.0684
  783SOL    HW1 2163   3.182   3.332   2.845 -0.1175 -0.4172 -0.5072
  783SOL    HW2 2164   3.032   3.314   2.851 -0.2385  0.5511 -0.3945
  784SOL     OW 2165   2.408   1.977   1.194 -0.3488  0.4388  0.1531
  784SOL    HW1 2166   2.415   2.072   1.199  0.9395  0.3581  0.1088
  784SOL    HW2 2167   2.480   1.950   1.138 -1.8467 -0.4255 -1.4328
  785SOL     OW 2168   2.382   0.560   3.225  0.1564 -0.0984  0.8913
  785SOL    HW1 2169   2.388   0.472   3.189 -1.9721 -0.2066  0.7044
  785SOL    HW2 2170   2.427   0.555   3.309 -2.4497 -2.1904  2.2964
  786SOL     OW 2171   1.638   2.569   1.486 -0.3530  0.5976  0.1765
  786SOL    HW1 2172   1.573   2.514   1.531 -0.9567  1.6749  0.6622
  786SOL    HW2 2173   1.621   2.658   1.518  1.4031  0.9115  0.3476
  787SOL     OW 2174   1.412   1.405   2.882  0.8546  0.0594  0.2451
  787SOL    HW1 2175   1.364   1.433   2.960  0.4976 -0.8454  0.3626
  787SOL    HW2 2176   1.390   1.312   2.872 -1.3747  0.7817 -2.6059
  788SOL     OW 2177   2.324   1.479   0.929 -0.3002  0.0136 -0.2161
  788SOL    HW1 2178   2.312   1.388   0.900  0.9297 -0.3061  0.2216
  788SOL    HW2 2179   2.335   1.528   0.847 -0.7777 -0.2544 -0.4474
  789SOL     OW 2180   3.348   1.212   1.797  0.3613 -0.3209 -0.0494
  789SOL    HW1 2181   3.418   1.149   1.815  1.6886  1.3837  1.0754
  789SOL    HW2 2182   3.341   1.264   1.877 -0.4090  1.2288 -1.0634
  790SOL     OW 2183   1.905   0.535   0.330  0.1838  0.1511  0.4212
  790SOL    HW1 2184   1.815   0.505   0.316  0.0277  0.7605  0.0980
  790SOL    HW2 2185   1.948   0.460   0.372  0.3760 -1.3844 -2.2582
  791SOL     OW 2186   2.778   3.360   0.847 -0.4913 -0.1553 -0.1406
  791SOL    HW1 2187   2.731   3.320   0.920  1.1666 -2.1782 -0.0734
  791SOL    HW2 2188   2.855   3.400   0.888  0.9303 -2.0735 -0.7543
  792SOL     OW 2189   3.221   3.364   2.520  0.1617  0.0581  0.0693
  792SOL    HW1 2190   3.225   3.386   2.427 -0.1896  0.1300  0.0670
  792SOL    HW2 2191   3.137   3.319   2.530  1.1742 -1.9934 -0.0756
  793SOL     OW 2192   0.945   2.873   0.013 -0.1267 -0.3856  0.2600
  793SOL    HW1 2193   0.877   2.890  -0.053 -0.8933  0.3424  1.2025
  793SOL    HW2 2194   0.911   2.798   0.063 -0.0859 -0.2138  0.5438
  794SOL     OW 2195   1.982   1.627   2.081 -0.3384 -0.1488  0.0970
  794SOL    HW1 2196   1.949   1.574   2.008  1.0255  0.6330 -1.1455
  794SOL    HW2 2197   2.059   1.671   2.046  1.0578 -0.6112  2.3621
  795SOL     OW 2198   2.381   0.288   2.201  0.2353  0.7672  0.0124
  795SOL    HW1 2199   2.361   0.329   2.285 -0.4770  0.1193  0.1689
  795SOL    HW2 2200   2.319   0.215   2.194  0.4391  0.6719 -0.9685
  796SOL     OW 2201   2.267   3.280   1.387  0.5189 -0.6676  0.2229
  796SOL    HW1 2202   2.275   3.272   1.482  0.2501 -0.7208  0.2411
  796SOL    HW2 2203   2.295   3.195   1.353 -0.1694 -0.9309  0.2988
  797SOL     OW 2204   1.042   3.254   2.258  0.8286 -0.0871  0.2934
  797SOL    HW1 2205   1.130   3.291   2.249  1.9613 -2.6112  0.2572
  797SOL    HW2 2206   1.053   3.178   2.315 -0.8564 -1.8616 -1.5852
  798SOL     OW 2207   2.037   1.462   2.353  0.3463  0.2378 -0.0079
  798SOL    HW1 2208   2.121   1.497   2.323  0.4575 -0.3175 -0.3528
  798SOL    HW2 2209   1.972   1.505   2.298  0.5022 -0.2852 -0.6095
  799SOL     OW 2210   0.377   1.717   3.028 -0.0157  0.1995 -0.2012
  799SOL    HW1 2211   0.455   1.675   3.064 -1.1956 -1.6315  0.3983
  799SOL    HW2 2212   0.373   1.687   2.937 -0.0078  0.3071 -0.2372
  800SOL     OW 2213   0.456   2.437   2.739 -0.7433  0.1562 -0.1316
  800SOL    HW1 2214   0.448   2.447   2.644 -1.8252 -0.9548 -0.1649
  800SOL    HW2 2215   0.457   2.343   2.754 -1.9120  0.3057  1.0570
  801SOL     OW 2216   2.980   2.643   0.443  0.2181 -0.0390 -0.2540
  801SOL    HW1 2217   2.911   2.657   0.508  0.2857 -3.4762  0.7630
  801SOL    HW2 2218   2.938   2.663   0.359 -1.6421 -0.7253  0.4489
  802SOL     OW 2219   0.230   0.331   1.383 -0.2479 -0.0745  0.3845
  802SOL    HW1 2220   0.206   0.390   1.454 -1.0800 -0.4160  0.3918
  802SOL    HW2 2221   0.286   0.265   1.425 -0.7290 -0.2691  0.7317
  803SOL     OW 2222   2.553   2.461   2.501 -1.0733 -0.3494  0.3400
  803SOL    HW1 2223   2.482   2.452   2.565  0.8731  1.8191  3.0731
  803SOL    HW2 2224   2.599   2.377   2.504 -0.6731 -0.1183  2.4063
  804SOL     OW 2225   1.360   2.339   0.755 -0.0281  0.4083 -0.4472
  804SOL    HW1 2226   1.287   2.277   0.760  0.1636  0.2894  1.3503
  804SOL    HW2 2227   1.431   2.297   0.803  0.5806  1.3907 -0.4547
  805SOL     OW 2228   2.421   2.392   3.269 -0.4583 -0.2216  0.0565
  805SOL    HW1 2229   2.364   2.423   3.339  0.3394 -0.4179  0.8103
  805SOL    HW2 2230   2.375   2.317   3.231 -1.9347  1.2084 -1.1295
  806SOL     OW 2231   3.112   1.779   1.837  0.0556  0.3914  0.5287
  806SOL    HW1 2232   3.117   1.790   1.742  0.1245 -0.5453  0.4151
  806SOL    HW2 2233   3.192   1.732   1.860 -0.3895 -0.1855  0.9213
  807SOL     OW 2234   1.170   1.748   1.731  0.1745  0.2388 -0.0231
  807SOL    HW1 2235   1.247   1.707   1.772 -0.0665  0.3358  0.5297
  807SOL    HW2 2236   1.095   1.706   1.773 -0.0769  0.3374 -0.3685
  808SOL     OW 2237   3.295   2.182   2.562 -0.6831 -0.2064 -0.0790
  808SOL    HW1 2238   3.332   2.258   2.519  0.0367 -0.3490  0.2843
  808SOL    HW2 2239   3.200   2.193   2.551 -0.5919  0.7478 -0.0005
  809SOL     OW 2240   0.073   2.375   3.041  0.3207 -0.1940 -0.0582
  809SOL    HW1 2241   0.165   2.349   3.040  1.0421  2.0828 -0.8196
  809SOL    HW2 2242   0.024   2.293   3.035  2.3005 -1.4345 -0.0500
  810SOL     OW 2243   1.395   2.459   0.465  0.2316  0.4555 -0.0474
  810SOL    HW1 2244   1.398   2.369   0.430  0.2504 -0.2681  1.7121
  810SOL    HW2 2245   1.467   2.463   0.527 -0.3981  1.3627  0.6482
  811SOL     OW 2246   0.058   2.988   0.015 -0.0466  0.2017 -0.6936
  811SOL    HW1 2247  -0.016   2.967   0.071  0.0236  1.4747 -0.0847
  811SOL    HW2 2248   0.105   2.905   0.004 -0.9386 -0.3826 -0.1759
  812SOL     OW 2249   3.192   2.033   0.601 -0.6100  0.0218 -0.0281
  812SOL    HW1 2250   3.183   2.081   0.683 -1.3942  1.5839 -0.9892
  812SOL    HW2 2251   3.106   1.993   0.587 -0.7387  0.4577 -0.5018
  813SOL     OW 2252   0.164   0.775   0.886  0.1446 -0.2628  0.0995
  813SOL    HW1 2253   0.196   0.804   0.971 -1.0083 -1.0025  0.8138
  813SOL    HW2 2254   0.239   0.733   0.845 -0.0992 -3.0788  2.2416
  814SOL     OW 2255   2.011   2.832   1.856 -0.1332  0.5834  0.7053
  814SOL    HW1 2256   2.050   2.913   1.823 -1.7787  1.3800  0.6129
  814SOL    HW2 2257   1.918   2.853   1.867 -0.5809 -1.2805  0.7515
  815SOL     OW 2258   0.118   1.266   2.566  0.1252  0.0104 -0.2696
  815SOL    HW1 2259   0.135   1.321   2.490 -0.0254  0.1394 -0.2087
  815SOL    HW2 2260   0.046   1.309   2.612 -0.6329 -0.7541 -0.7342
  816SOL     OW 2261   0.635   2.506   3.367  0.2541  0.1720 -0.3391
  816SOL    HW1 2262   0.591   2.589   3.383  0.1374 -0.2330  1.7102
  816SOL    HW2 2263   0.564   2.444   3.350  0.3758  0.5985 -2.8057
  817SOL     OW 2264   1.052   1.631   0.749 -0.0027 -0.6145 -0.4197
  817SOL    HW1 2265   1.125   1.643   0.810 -0.0834 -2.3587  0.0801
  817SOL    HW2 2266   1.010   1.550   0.778 -0.8388 -0.7811 -2.0063
  818SOL     OW 2267   0.622   0.168   2.662  0.1742  0.2410 -0.6028
  818SOL    HW1 2268   0.548   0.107   2.659  0.7830 -0.9527  2.8803
  818SOL    HW2 2269   0.589   0.249   2.624 -3.6945  0.4224  2.5013
  819SOL     OW 2270   3.059   0.635   2.323 -0.1542 -0.2999 -0.2150
  819SOL    HW1 2271   3.079   0.704   2.259  0.5182 -0.4133 -0.1283
  819SOL    HW2 2272   3.062   0.554   2.273  0.3029 -0.3821 -0.0547
  820SOL     OW 2273   0.590   2.552   0.937 -0.3377  0.0261 -0.1855
  820SOL    HW1 2274   0.610   2.621   1.000  1.8252 -0.0703 -0.6928
  820SOL    HW2 2275   0.556   2.480   0.990 -1.4780  1.0291  0.4871
  821SOL     OW 2276   2.130   2.216   1.497  0.4952 -0.1477 -0.0249
  821SOL    HW1 2277   2.035   2.227   1.504  0.5529  1.1329 -0.9914
  821SOL    HW2 2278   2.140   2.135   1.446 -0.0397 -1.0335  1.2304
  822SOL     OW 2279   0.276   2.088   3.280 -0.0140 -0.3032  0.0149
  822SOL    HW1 2280   0.275   1.997   3.311  1.7314  0.9765  4.4994
  822SOL    HW2 2281   0.187   2.119   3.294  0.1148 -0.5140  1.3865
  823SOL     OW 2282   1.700   2.960   0.105 -0.2291 -0.3269 -0.1956
  823SOL    HW1 2283   1.612   2.945   0.071  0.3492 -1.0875 -1.4547
  823SOL    HW2 2284   1.757   2.911   0.045  1.0642  0.3080  0.4769
  824SOL     OW 2285   0.096   2.867   2.588 -0.4263  0.3808  0.1542
  824SOL    HW1 2286   0.099   2.962   2.573 -0.9645  0.4068  0.1992
  824SOL    HW2 2287   0.149   2.854   2.667 -0.5051  0.6636  0.2562
  825SOL     OW 2288   1.100   1.253   3.025 -0.6437 -0.3868  0.1717
  825SOL    HW1 2289   1.022   1.268   3.078  0.2699 -0.5853  1.6301
  825SOL    HW2 2290   1.168   1.304   3.068  0.1416 -0.6080 -0.7853
  826SOL     OW 2291   2.890   1.275   2.895 -0.2126  0.0241  0.2462
  826SOL    HW1 2292   2.922   1.361   2.869  0.8146 -0.2645  0.5114
  826SOL    HW2 2293   2.885   1.279   2.991 -0.4589 -0.1167  0.2420
  827SOL     OW 2294   2.766   1.492   0.189 -0.3357  0.0792  0.0243
  827SOL    HW1 2295   2.702   1.539   0.243 -0.6704 -0.3616  0.0147
  827SOL    HW2 2296   2.847   1.542   0.200  0.0280 -0.8502  2.1850
  828SOL     OW 2297   2.962   1.417   0.436 -0.4297 -0.1370 -0.0791
  828SOL    HW1 2298   3.001   1.338   0.397 -1.2743 -0.8018  0.3771
  828SOL    HW2 2299   2.984   1.487   0.375 -0.0946 -0.8185 -0.7630
  829SOL     OW 2300   3.369   2.444   2.439  0.2435 -0.1453  0.2601
  829SOL    HW1 2301   3.346   2.509   2.373 -0.8193 -1.2757 -0.5307
  829SOL    HW2 2302   3.413   2.494   2.508  2.9500  0.8610 -2.0068
  830SOL     OW 2303   1.437   0.293   0.999 -0.2486 -0.4943 -0.2345
  830SOL    HW1 2304   1.502   0.349   1.041 -0.6647 -1.5264  1.9006
  830SOL    HW2 2305   1.489   0.229   0.949  0.3019 -0.1164 -0.1551
  831SOL     OW 2306   1.088   2.166   2.649  0.5472  0.1226 -0.4725
  831SOL    HW1 2307   1.017   2.111   2.615  0.1491 -0.1751  0.7622
  831SOL    HW2 2308   1.044   2.248   2.674  0.8710  0.4303 -0.9081
  832SOL     OW 2309   0.868   0.914   0.765  0.8586  0.0381 -0.6356
  832SOL    HW1 2310   0.840   0.851   0.831  0.9462  0.3276 -0.3184
  832SOL    HW2 2311   0.963   0.917   0.772  0.8052  0.8186 -0.0674
  833SOL     OW 2312   1.139   0.524   0.912 -0.5240  0.0977  0.3780
  833SOL    HW1 2313   1.125   0.430   0.919 -0.8934  0.0936 -0.2920
  833SOL    HW2 2314   1.063   0.556   0.863  0.5715  0.4510 -1.1715
  834SOL     OW 2315   0.253   2.216   2.548 -0.6621  0.2209  0.4144
  834SOL    HW1 2316   0.247   2.185   2.639 -0.0818  0.1000  0.4172
  834SOL    HW2 2317   0.216   2.145   2.496  1.1632 -0.7752  0.3721
  835SOL     OW 2318   2.867   2.424   1.122 -0.1392  0.7288  0.9150
  835SOL    HW1 2319   2.789   2.468   1.088  0.3888  0.9805 -0.0208
  835SOL    HW2 2320   2.843   2.331   1.125 -0.5730  0.8386  0.9203
  836SOL     OW 2321   0.263   3.237   1.997  0.9404 -0.4561 -0.2747
  836SOL    HW1 2322   0.290   3.294   2.069  1.4569  0.2769 -1.0413
  836SOL    HW2 2323   0.239   3.296   1.926  0.2021 -1.1657 -0.6373
  837SOL     OW 2324   3.363   2.190   2.141  0.2054  0.6086  0.7146
  837SOL    HW1 2325   3.388   2.105   2.103 -1.7458  1.1869 -2.2482
  837SOL    HW2 2326   3.445   2.229   2.169  1.4007 -1.3836  0.2191
  838SOL     OW 2327   1.311   1.256   1.227 -0.2665 -0.1271  0.1440
  838SOL    HW1 2328   1.382   1.260   1.291  0.2853  0.4107 -0.4723
  838SOL    HW2 2329   1.245   1.200   1.266  0.0167  0.2696  1.2222
  839SOL     OW 2330   2.416   0.965   1.985  0.4054  0.5439 -0.2892
  839SOL    HW1 2331   2.467   0.953   2.065  2.3518  1.2795 -1.3358
  839SOL    HW2 2332   2.350   1.029   2.008  1.2080  1.0693  0.6367
  840SOL     OW 2333   0.747   1.361   0.392 -0.2785  0.1869 -0.4938
  840SOL    HW1 2334   0.840   1.350   0.411 -0.4128  0.7718  0.6189
  840SOL    HW2 2335   0.728   1.297   0.323  0.8064 -0.3796 -0.2834
  841SOL     OW 2336   2.848   2.315   3.102 -0.3337  0.5546 -0.4857
  841SOL    HW1 2337   2.822   2.284   3.015 -0.3757 -0.8625  0.0131
  841SOL    HW2 2338   2.940   2.290   3.110 -0.5503 -0.0431  0.1908
  842SOL     OW 2339   2.243   1.406   1.374  0.6819  0.2999  0.1425
  842SOL    HW1 2340   2.277   1.321   1.347 -0.1716 -0.4738  1.4034
  842SOL    HW2 2341   2.319   1.464   1.371  0.4842  0.7921 -5.3631
  843SOL     OW 2342   1.339   1.668   0.001  0.1129  0.5014 -0.2223
  843SOL    HW1 2343   1.359   1.616   0.078  0.6770 -0.2534 -0.8561
  843SOL    HW2 2344   1.259   1.628  -0.034  1.4226 -1.0339 -1.6134
  844SOL     OW 2345   0.297   1.700   2.767  0.4337  0.1138  0.0344
  844SOL    HW1 2346   0.340   1.749   2.697 -0.6160 -0.5347 -1.1055
  844SOL    HW2 2347   0.289   1.611   2.733 -1.3634  0.1090  0.3789
  845SOL     OW 2348   2.388   2.299   0.880  0.3561 -0.7970 -0.4153
  845SOL    HW1 2349   2.299   2.329   0.864 -0.4126 -3.6366 -2.2124
  845SOL    HW2 2350   2.387   2.264   0.969 -0.9191 -2.5590 -1.0834
  846SOL     OW 2351   0.315   0.247   0.592 -0.4173 -0.2641 -0.0454
  846SOL    HW1 2352   0.260   0.169   0.586  0.1255 -0.8938  2.4220
  846SOL    HW2 2353   0.253   0.319   0.607 -0.6791 -0.8701  2.0267
  847SOL     OW 2354   3.252   2.004   0.127  0.2392  0.5141 -0.1279
  847SOL    HW1 2355   3.216   2.025   0.040 -1.5850 -2.4901 -0.2344
  847SOL    HW2 2356   3.312   1.931   0.111 -0.8390 -0.7061  1.2157
  848SOL     OW 2357   3.064   0.150   0.710 -0.6802  0.4440  1.1011
  848SOL    HW1 2358   3.089   0.076   0.655 -1.3350 -0.3205  1.8169
  848SOL    HW2 2359   3.074   0.227   0.653  2.7771  0.1889  1.1405
  849SOL     OW 2360   2.103   1.702   0.187  0.9858 -0.1804 -0.1222
  849SOL    HW1 2361   2.078   1.696   0.279 -0.8698 -2.9979 -0.6593
  849SOL    HW2 2362   2.107   1.611   0.157  0.3189  0.6389 -3.1060
  850SOL     OW 2363   2.548   2.842   1.686  0.2329 -0.6232 -0.1640
  850SOL    HW1 2364   2.620   2.822   1.746 -0.1499 -1.0178  0.1655
  850SOL    HW2 2365   2.498   2.761   1.680 -0.4162 -0.2342 -0.0783
  851SOL     OW 2366   1.469   3.156   1.789  0.2741  0.2539 -0.4354
  851SOL    HW1 2367   1.549   3.199   1.760 -1.2042  2.6709 -1.1969
  851SOL    HW2 2368   1.405   3.177   1.721 -1.1973 -0.9974  0.5209
  852SOL     OW 2369   3.174   1.357   2.891  0.0197  0.0141 -0.3049
  852SOL    HW1 2370   3.267   1.370   2.871  0.7467 -0.7531  2.2222
  852SOL    HW2 2371   3.168   1.367   2.986 -2.4575 -0.2267 -0.3728
  853SOL     OW 2372   3.011   0.019   1.594  0.4027 -0.4052 -0.5962
  853SOL    HW1 2373   2.954   0.092   1.568  1.0553  0.2323 -0.2735
  853SOL    HW2 2374   3.039  -0.020   1.511 -1.5505 -1.5940 -0.7705
  854SOL     OW 2375   1.555   2.758   0.726 -0.0988 -0.3024  0.0038
  854SOL    HW1 2376   1.577   2.844   0.690 -0.8832 -0.2704 -0.4144
  854SOL    HW2 2377   1.570   2.767   0.820  2.0194 -0.3985 -0.2643
  855SOL     OW 2378   2.407   2.555   1.661 -0.0836  0.6151  0.5362
  855SOL    HW1 2379   2.460   2.498   1.717  1.0479 -1.2364 -2.1787
  855SOL    HW2 2380   2.327   2.571   1.711  0.4676 -1.6792  2.3034
  856SOL     OW 2381   1.133   0.857   2.954 -0.4759  0.3624 -0.0590
  856SOL    HW1 2382   1.206   0.909   2.990  1.4382 -1.6958 -0.7191
  856SOL    HW2 2383   1.131   0.779   3.010  0.9824 -1.7822 -2.7434
  857SOL     OW 2384   0.909   2.684   3.135  0.1693 -0.2941  0.0549
  857SOL    HW1 2385   0.893   2.590   3.146  0.7195 -0.4264 -0.2272
  857SOL    HW2 2386   0.825   2.719   3.105  0.4209 -1.0171 -1.6367
  858SOL     OW 2387   2.605   0.451   2.130  0.1248  0.2810 -0.2333
  858SOL    HW1 2388   2.531   0.395   2.156 -1.0801  1.3459 -1.2771
  858SOL    HW2 2389   2.632   0.416   2.046  0.4190  0.2801 -0.1380
  859SOL     OW 2390   2.074   0.554   1.655  0.1011  0.3686  0.3074
  859SOL    HW1 2391   2.130   0.594   1.721 -1.0580  0.4658  1.2631
  859SOL    HW2 2392   2.064   0.621   1.587 -1.8651  1.7843  1.9105
  860SOL     OW 2393   2.624   2.792   2.504 -0.0423 -0.2822 -0.1012
  860SOL    HW1 2394   2.617   2.787   2.599  1.9255 -0.5062  0.0813
  860SOL    HW2 2395   2.715   2.820   2.489 -0.3947 -0.0184 -1.9079
  861SOL     OW 2396   2.826   1.907   1.231 -0.1350  0.0751  0.8793
  861SOL    HW1 2397   2.890   1.837   1.215  0.1954  0.6535 -0.4354
  861SOL    HW2 2398   2.832   1.923   1.325  1.6719  0.1148  0.7871
  862SOL     OW 2399   1.409   0.837   1.062 -0.2073 -0.4527 -0.7034
  862SOL    HW1 2400   1.493   0.850   1.107 -0.3116  1.0714 -0.8968
  862SOL    HW2 2401   1.386   0.746   1.080  1.0288 -0.6243  0.1349
  863SOL     OW 2402   1.503   0.183   2.057 -0.0389  0.1006 -0.0868
  863SOL    HW1 2403   1.444   0.230   1.997 -2.3103 -0.4228  1.5796
  863SOL    HW2 2404   1.510   0.095   2.020  0.1699  0.3275 -0.5972
  864SOL     OW 2405   1.447   1.837   2.460  0.3927 -0.2548  0.5770
  864SOL    HW1 2406   1.480   1.927   2.457  1.6475 -0.7221 -1.5547
  864SOL    HW2 2407   1.509   1.791   2.516  0.1012  0.0521  1.1661
  865SOL     OW 2408   0.568   3.340   0.276  0.0626  0.0986  0.5437
  865SOL    HW1 2409   0.643   3.281   0.270 -0.3881 -0.5063  0.8111
  865SOL    HW2 2410   0.551   3.367   0.186 -0.1908 -0.7635  0.3276
  866SOL     OW 2411   1.050   0.150   2.063 -0.2496 -0.2906 -0.4244
  866SOL    HW1 2412   1.023   0.089   2.131 -1.0408 -1.0405 -1.3886
  866SOL    HW2 2413   1.110   0.099   2.008 -1.9166 -0.6566 -1.9870
  867SOL     OW 2414   0.552   0.619   2.713 -0.4397 -0.2333 -0.1029
  867SOL    HW1 2415   0.485   0.602   2.778 -1.4886 -0.0856 -1.1113
  867SOL    HW2 2416   0.550   0.714   2.700  2.0394  0.2099  1.9806
  868SOL     OW 2417   2.662   1.261   0.447  0.4251 -0.1631  0.2263
  868SOL    HW1 2418   2.631   1.176   0.415  0.0399 -0.0354  0.2597
  868SOL    HW2 2419   2.740   1.279   0.394  0.2317 -0.3155 -0.1178
  869SOL     OW 2420   0.697   2.255   1.175  0.2814 -0.1766  0.5511
  869SOL    HW1 2421   0.775   2.249   1.230 -1.1264 -1.3195  2.5990
  869SOL    HW2 2422   0.721   2.210   1.094  1.9042  0.0296  0.8854
  870SOL     OW 2423   0.427   1.411   2.757 -0.2448 -0.5247 -0.6819
  870SOL    HW1 2424   0.432   1.369   2.671 -0.0139  0.4064 -1.1448
  870SOL    HW2 2425   0.516   1.438   2.776 -0.0563 -1.8376  0.4576
  871SOL     OW 2426   0.003   1.887   0.443  0.4404  0.2960  0.0081
  871SOL    HW1 2427  -0.041   1.806   0.467  0.0153  0.2323 -0.9605
  871SOL    HW2 2428  -0.061   1.956   0.463  0.9886  0.4571  1.3157
  872SOL     OW 2429   2.651   1.349   3.359  0.1586 -0.1424  0.0834
  872SOL    HW1 2430   2.727   1.292   3.348  0.3338 -0.0506  0.7819
  872SOL    HW2 2431   2.681   1.418   3.418  0.0360  0.8517 -0.9794
  873SOL     OW 2432   2.731   0.644   2.474  0.6222 -0.0257 -0.1191
  873SOL    HW1 2433   2.654   0.699   2.483  1.3674  1.1628 -0.7548
  873SOL    HW2 2434   2.708   0.582   2.404 -0.2103 -0.5345  0.5857
  874SOL     OW 2435   0.968   2.633   0.811 -0.1519 -0.4752  0.1914
  874SOL    HW1 2436   0.951   2.724   0.785 -2.5112 -0.4916  1.3943
  874SOL    HW2 2437   1.032   2.602   0.748 -0.8278  1.4020 -1.5507
  875SOL     OW 2438   2.598   3.286   2.058  0.2032  0.2252  0.4006
  875SOL    HW1 2439   2.613   3.198   2.093  0.3986 -0.4875 -1.3631
  875SOL    HW2 2440   2.639   3.284   1.971 -0.4435  1.8281  0.0314
  876SOL     OW 2441   0.008   3.324   1.267  0.3477  0.0371  0.0605
  876SOL    HW1 2442   0.103   3.333   1.278  0.4718  0.2375 -1.0547
  876SOL    HW2 2443  -0.021   3.276   1.345  1.3906 -0.2061  0.3130
  877SOL     OW 2444   0.478   0.255   2.227  0.0526  0.3603  0.2548
  877SOL    HW1 2445   0.471   0.282   2.318  0.0793  2.2845 -0.2744
  877SOL    HW2 2446   0.498   0.335   2.179 -1.0063 -0.3925 -1.5752
  878SOL     OW 2447   0.785   1.214   2.518 -0.3404 -0.2070 -0.1779
  878SOL    HW1 2448   0.776   1.309   2.524 -0.1183 -0.1273 -0.9539
  878SOL    HW2 2449   0.851   1.192   2.584  0.0497  0.2559 -0.4045
  879SOL     OW 2450   1.020   1.705   1.210 -0.1101  0.0754 -0.3835
  879SOL    HW1 2451   0.997   1.655   1.289 -0.5203  0.5395 -0.1989
  879SOL    HW2 2452   0.945   1.693   1.152 -0.7554  1.4103  0.1256
  880SOL     OW 2453   3.349   0.341   1.221  0.0747  0.6466  0.2364
  880SOL    HW1 2454   3.433   0.327   1.264  0.1780  2.1671  0.5833
  880SOL    HW2 2455   3.370   0.388   1.141 -0.4059  0.5005  0.0184
  881SOL     OW 2456   3.130   2.756   2.291 -0.1438  0.2189  0.5249
  881SOL    HW1 2457   3.098   2.843   2.315  1.3256  0.3614  2.1286
  881SOL    HW2 2458   3.052   2.701   2.291 -1.1263  1.5297 -0.6428
  882SOL     OW 2459   0.538   1.771   1.388 -0.1574 -0.3046 -0.1306
  882SOL    HW1 2460   0.478   1.699   1.408 -0.5205  0.1376  0.3906
  882SOL    HW2 2461   0.508   1.806   1.305 -0.0801 -0.6490 -0.3046
  883SOL     OW 2462   0.991   3.309   0.949  0.2918 -0.3343  0.1136
  883SOL    HW1 2463   0.896   3.306   0.941  0.0797  1.7863  1.2579
  883SOL    HW2 2464   1.023   3.287   0.861 -1.2496 -0.6139 -0.4060
  884SOL     OW 2465   2.751   3.151   3.366  0.0342  0.4099  0.1664
  884SOL    HW1 2466   2.822   3.158   3.430 -0.7372  0.6203  1.0297
  884SOL    HW2 2467   2.794   3.124   3.285  1.1914  1.2037  0.4846
  885SOL     OW 2468   2.785   2.028   1.482  0.4591  0.1668  0.5091
  885SOL    HW1 2469   2.722   2.100   1.485 -0.7072 -0.8246  0.4496
  885SOL    HW2 2470   2.732   1.949   1.486  1.6423 -0.7193 -0.4443
  886SOL     OW 2471   1.896   0.101   2.229  0.5692  0.2923 -0.1053
  886SOL    HW1 2472   1.887   0.020   2.179 -0.1056  0.2097  0.1252
  886SOL    HW2 2473   1.864   0.170   2.170  0.3875  0.2798 -0.0239
  887SOL     OW 2474   0.938   0.183   0.557  0.1867  0.0024 -0.1603
  887SOL    HW1 2475   0.940   0.221   0.469  1.1218 -0.6437 -0.4308
  887SOL    HW2 2476   1.011   0.225   0.602 -0.5423  0.6452  0.4635
  888SOL     OW 2477   1.526   2.210   0.910  0.3934 -0.0900  0.3777
  888SOL    HW1 2478   1.580   2.254   0.975 -0.9031  1.4682  0.4622
  888SOL    HW2 2479   1.516   2.121   0.943  1.0217  0.2382  1.5033
  889SOL     OW 2480   2.697   2.246   2.195 -0.0068 -0.0614  0.5248
  889SOL    HW1 2481   2.703   2.184   2.268 -1.0318  0.6948  1.2868
  889SOL    HW2 2482   2.620   2.218   2.145  0.5399 -0.4207 -0.1278
  890SOL     OW 2483   2.342   1.923   2.087 -0.0432  0.0059 -0.2093
  890SOL    HW1 2484   2.273   1.918   2.154  0.2705  3.2261  0.4920
  890SOL    HW2 2485   2.423   1.909   2.136  0.0175 -0.4156 -0.4294
  891SOL     OW 2486   3.312   2.228   0.997  0.0059  0.6831 -0.1155
  891SOL    HW1 2487   3.248   2.187   1.054  1.8022  0.0593  1.5834
  891SOL    HW2 2488   3.374   2.158   0.976  0.9338  1.5835 -0.4926
  892SOL     OW 2489   2.783   2.630   1.990 -0.2504  0.0145 -0.1304
  892SOL    HW1 2490   2.717   2.566   1.961 -0.0920  0.3446 -1.2309
  892SOL    HW2 2491   2.863   2.578   2.001  0.4162  0.2880 -2.9655
  893SOL     OW 2492   0.014   0.083   0.578  0.1078 -0.4780 -0.2615
  893SOL    HW1 2493  -0.074   0.048   0.564  0.0264 -1.0282  1.3303
  893SOL    HW2 2494   0.009   0.125   0.664  1.2879 -0.1578 -0.3337
  894SOL     OW 2495   0.309   1.099   1.519 -0.2317  0.5214 -0.2013
  894SOL    HW1 2496   0.376   1.092   1.451  0.6073  0.9617  0.5719
  894SOL    HW2 2497   0.354   1.076   1.600 -1.1200  0.4197  0.2704
  895SOL     OW 2498   1.585   2.494   0.653  0.2198 -0.2199 -0.4519
  895SOL    HW1 2499   1.512   2.465   0.707 -1.7048  1.5973 -1.8924
  895SOL    HW2 2500   1.598   2.586   0.677  0.8932 -0.0451 -1.4044
  896SOL     OW 2501   0.491   3.167   2.406  0.4380 -0.1436  0.3247
  896SOL    HW1 2502   0.431   3.118   2.350  0.3440  1.5220 -1.1158
  896SOL    HW2 2503   0.572   3.171   2.356  0.4160  1.2042  0.3679
  897SOL     OW 2504   1.087   0.104   0.241 -0.5709 -0.0044 -0.2668
  897SOL    HW1 2505   1.063   0.037   0.305 -1.0176  0.1498 -0.2763
  897SOL    HW2 2506   1.102   0.054   0.160  1.0530 -0.3379  0.2008
  898SOL     OW 2507   2.581   0.776   1.577  0.0869 -0.0192  0.0925
  898SOL    HW1 2508   2.609   0.686   1.561  0.2765 -0.1204  0.9170
  898SOL    HW2 2509   2.626   0.828   1.511  0.0721 -0.5136 -0.3093
  899SOL     OW 2510   2.914   2.830   2.548  0.2599  0.3941 -0.0910
  899SOL    HW1 2511   2.888   2.738   2.551  0.3624  0.3752  0.5048
  899SOL    HW2 2512   2.920   2.856   2.640  1.3682  0.6725 -0.2265
  900SOL     OW 2513   2.673   1.470   2.541 -0.3594 -0.3137 -0.5642
  900SOL    HW1 2514   2.725   1.494   2.464 -0.6126 -0.2054 -0.7034
  900SOL    HW2 2515   2.696   1.378   2.557  1.4518  0.3105  0.6512
  901SOL     OW 2516   0.478   0.676   2.336  0.7381 -0.3670 -0.4363
  901SOL    HW1 2517   0.414   0.743   2.312  0.3479 -0.6958 -0.3444
  901SOL    HW2 2518   0.443   0.638   2.418  0.8992 -0.7411 -0.5374
  902SOL     OW 2519   3.375   0.438   2.772  0.2472 -0.0119  0.0751
  902SOL    HW1 2520   3.416   0.374   2.829 -1.1281 -1.8866 -0.9358
  902SOL    HW2 2521   3.356   0.512   2.829  2.0874 -0.3571  1.2365
  903SOL     OW 2522   0.165   0.077   2.474  0.2486  0.0293 -0.2262
  903SOL    HW1 2523   0.192   0.168   2.462  0.0941  0.1269  0.1553
  903SOL    HW2 2524   0.093   0.081   2.537 -0.5380 -0.2486 -1.0937
  904SOL     OW 2525   1.247   2.747   1.947  0.1255 -0.2974 -0.1763
  904SOL    HW1 2526   1.264   2.658   1.977 -0.7812 -0.4688 -0.1426
  904SOL    HW2 2527   1.152   2.758   1.958  0.2852  0.8014  0.1918
  905SOL     OW 2528   1.204   0.039   1.094  0.6838  0.0454 -0.4433
  905SOL    HW1 2529   1.228   0.126   1.064 -2.0719  2.0095  2.3268
  905SOL    HW2 2530   1.134   0.012   1.035 -0.0418  0.8321  0.0187
  906SOL     OW 2531   1.222   3.365   1.922 -0.1327 -0.0905 -0.8648
  906SOL    HW1 2532   1.309   3.352   1.885  0.0624 -0.1722 -0.3696
  906SOL    HW2 2533   1.165   3.370   1.845  0.3876  0.6282 -1.2192
  907SOL     OW 2534   0.717   1.555   1.415  0.4911  0.4581 -0.5155
  907SOL    HW1 2535   0.734   1.578   1.506  1.3074  0.4731 -0.6673
  907SOL    HW2 2536   0.668   1.629   1.379  0.1871  0.4597 -0.1003
  908SOL     OW 2537   2.866   1.018   0.291  0.3112 -0.5381 -0.0652
  908SOL    HW1 2538   2.901   0.940   0.248 -1.0178 -0.5563 -1.1962
  908SOL    HW2 2539   2.771   1.005   0.290  0.1656 -0.2367  2.3801
  909SOL     OW 2540   1.373   1.648   0.566  0.2000  0.4950  0.4320
  909SOL    HW1 2541   1.338   1.669   0.479  0.5605 -1.1385 -0.1322
  909SOL    HW2 2542   1.320   1.574   0.596  2.1887 -1.0975  0.1701
  910SOL     OW 2543   2.253   2.080   0.591  0.4570  0.1288 -0.5339
  910SOL    HW1 2544   2.215   2.029   0.663 -0.4571  2.0247  0.4036
  910SOL    HW2 2545   2.178   2.104   0.537  0.5520  2.0668  0.1217
  911SOL     OW 2546   1.377   2.885   0.340  0.2441  0.9125  0.3508
  911SOL    HW1 2547   1.323   2.807   0.350  0.4615  0.7426  0.2111
  911SOL    HW2 2548   1.327   2.942   0.282  0.2244  0.7491  0.2078
  912SOL     OW 2549   0.044   1.867   2.827 -0.0782  1.2571  0.2999
  912SOL    HW1 2550   0.137   1.844   2.833 -0.7088 -1.5783  1.0269
  912SOL    HW2 2551   0.023   1.854   2.735 -0.4001 -1.4984  0.6749
  913SOL     OW 2552   1.707   3.285   1.661  0.0218 -0.1666  0.1585
  913SOL    HW1 2553   1.712   3.378   1.682 -1.4581 -0.1634  0.6331
  913SOL    HW2 2554   1.798   3.257   1.655  0.4967  1.1576  0.7052
  914SOL     OW 2555   1.789   0.972   2.510 -0.0875 -0.3032 -0.6733
  914SOL    HW1 2556   1.694   0.985   2.513 -0.7346 -4.0150  0.5859
  914SOL    HW2 2557   1.812   0.941   2.598  2.1733 -0.1241 -1.1447
  915SOL     OW 2558   0.284   2.719   1.315  0.0890  0.2856 -0.1032
  915SOL    HW1 2559   0.272   2.722   1.220 -1.3902 -1.9037 -0.0523
  915SOL    HW2 2560   0.248   2.802   1.346 -0.3415  0.6031 -1.3703
  916SOL     OW 2561   0.189   3.042   0.253  0.3695  0.0007 -0.0327
  916SOL    HW1 2562   0.117   3.077   0.201  0.1781  0.5969  0.6102
  916SOL    HW2 2563   0.213   2.960   0.210 -0.1607  0.1964 -0.7155
  917SOL     OW 2564   2.973   1.676   1.288  0.1573 -0.2130  0.3998
  917SOL    HW1 2565   2.944   1.688   1.378  0.8744  0.7407  0.5218
  917SOL    HW2 2566   3.067   1.658   1.295 -0.1723 -2.3725 -0.0383
  918SOL     OW 2567   1.365   0.662   0.793 -0.7336 -0.8514  0.4502
  918SOL    HW1 2568   1.330   0.574   0.809  1.7405 -2.2781 -1.3024
  918SOL    HW2 2569   1.413   0.684   0.872 -0.2156 -1.7121  0.3825
  919SOL     OW 2570   2.285   2.179   3.144 -0.4420 -0.0260  0.4076
  919SOL    HW1 2571   2.212   2.170   3.082  0.8769  0.6102 -1.3072
  919SOL    HW2 2572   2.290   2.094   3.187 -0.7487 -0.8530 -1.1268
  920SOL     OW 2573   3.181   1.649   3.374  0.2220  0.2588  0.5875
  920SOL    HW1 2574   3.223   1.564   3.359 -0.6524  0.0233 -0.7254
  920SOL    HW2 2575   3.164   1.683   3.286 -1.4489  0.7863  1.0824
  921SOL     OW 2576   3.042   1.618   0.897 -0.7672  0.1034  0.1257
  921SOL    HW1 2577   2.997   1.536   0.918  0.3767 -0.2119  1.4549
  921SOL    HW2 2578   3.019   1.635   0.805 -1.0777 -1.6631 -0.1533
  922SOL     OW 2579   1.519   0.194   1.358 -0.1320  0.5262 -0.0097
  922SOL    HW1 2580   1.457   0.131   1.320 -0.7632  0.9540  0.2929
  922SOL    HW2 2581   1.571   0.224   1.284 -1.7844  1.8389 -0.6819
  923SOL     OW 2582   2.326   2.716   3.251 -0.4879 -0.4392  0.3717
  923SOL    HW1 2583   2.316   2.812   3.251 -2.1185 -0.5843  0.4469
  923SOL    HW2 2584   2.385   2.698   3.323 -0.1432  0.5114  0.3443
  924SOL     OW 2585   0.080   1.963   2.561  0.8205  0.4947  0.5737
  924SOL    HW1 2586   0.015   1.932   2.498  1.5270  0.3055 -0.0757
  924SOL    HW2 2587   0.038   2.038   2.604  0.9461  1.6801 -1.2842
  925SOL     OW 2588   1.086   2.006   1.768  0.1878  0.2458 -0.4884
  925SOL    HW1 2589   1.118   1.918   1.746  0.4001  0.1642  0.1090
  925SOL    HW2 2590   1.159   2.046   1.815 -0.1612  0.4919 -0.1520
  926SOL     OW 2591   1.902   0.323   2.486  0.0550 -0.2235  0.2033
  926SOL    HW1 2592   1.918   0.235   2.521  0.6499 -0.2078 -0.0079
  926SOL    HW2 2593   1.907   0.381   2.562 -1.2599 -0.4610  0.4906
  927SOL     OW 2594   0.450   0.467   0.453 -0.1974  0.5795 -1.0768
  927SOL    HW1 2595   0.397   0.398   0.495 -1.7520  1.3197 -1.7416
  927SOL    HW2 2596   0.494   0.510   0.526  1.6278 -1.7035 -0.7045
  928SOL     OW 2597   2.083   1.071   0.801  0.5195  0.7400 -1.2032
  928SOL    HW1 2598   2.056   1.117   0.880 -0.8578 -2.0260  0.0948
  928SOL    HW2 2599   2.002   1.034   0.765  1.2653  0.9803 -3.2940
  929SOL     OW 2600   3.115   0.981   0.933 -0.2346  0.1249 -0.5644
  929SOL    HW1 2601   3.182   0.920   0.963  0.3750  0.6243 -0.8671
  929SOL    HW2 2602   3.101   1.041   1.007  0.1799  0.4491 -0.7409
  930SOL     OW 2603   0.973   0.892   0.311 -0.1232 -1.2931 -0.1190
  930SOL    HW1 2604   0.883   0.863   0.293 -0.4911  1.0242 -2.7911
  930SOL    HW2 2605   1.025   0.854   0.240  0.1809  0.6797 -1.0282
  931SOL     OW 2606   3.152   1.198   0.312  0.4057  0.6008 -0.0900
  931SOL    HW1 2607   3.171   1.162   0.226  0.2613  1.3535 -0.4416
  931SOL    HW2 2608   3.107   1.127   0.358  1.3103 -0.1331 -0.2970
  932SOL     OW 2609   0.201   1.098   0.884 -0.6181  0.2419 -0.0007
  932SOL    HW1 2610   0.219   1.022   0.941 -1.3031  0.2129  0.1922
  932SOL    HW2 2611   0.279   1.107   0.830 -0.8206 -1.0851 -0.5549
  933SOL     OW 2612   0.323   2.023   2.073  0.5703  0.0412  0.1307
  933SOL    HW1 2613   0.416   2.004   2.057  0.1300 -2.9063  0.5638
  933SOL    HW2 2614   0.296   2.071   1.995  1.7587 -1.8510 -1.5753
  934SOL     OW 2615   1.701   0.278   0.408 -0.0331  0.0828 -0.1490
  934SOL    HW1 2616   1.664   0.205   0.457 -0.8276 -0.5927 -1.6782
  934SOL    HW2 2617   1.660   0.356   0.446 -1.2490 -0.4804 -0.2531
  935SOL     OW 2618   0.317   1.136   3.200 -0.0936 -0.1158 -0.0666
  935SOL    HW1 2619   0.294   1.164   3.111  0.0744  0.0903 -0.0448
  935SOL    HW2 2620   0.407   1.168   3.213  0.7030 -1.9998 -0.6220
  936SOL     OW 2621   0.050   0.288   0.766  0.3551 -0.4244 -0.7104
  936SOL    HW1 2622   0.074   0.363   0.712  1.6078 -0.1818  0.1339
  936SOL    HW2 2623  -0.028   0.317   0.813  1.8243  1.1014  0.9640
  937SOL     OW 2624   1.197   1.329   1.690  0.4392  0.0132  0.1728
  937SOL    HW1 2625   1.103   1.338   1.675  0.5423 -0.9097 -1.1826
  937SOL    HW2 2626   1.238   1.376   1.617  1.1056  2.4427  1.9858
  938SOL     OW 2627   0.174   0.492   0.581 -1.1573  0.6085  0.0884
  938SOL    HW1 2628   0.216   0.574   0.605 -0.6152  0.0038  1.2781
  938SOL    HW2 2629   0.163   0.498   0.486  1.8330  0.7397 -0.3429
  939SOL     OW 2630   1.728   2.154   2.736 -0.5028 -0.2412  0.2536
  939SOL    HW1 2631   1.696   2.064   2.745 -0.8771 -0.3413 -1.6130
  939SOL    HW2 2632   1.783   2.169   2.813  0.3816 -2.4204  0.1027
  940SOL     OW 2633   1.670   1.405   2.176  0.0774 -0.4500  0.3678
  940SOL    HW1 2634   1.659   1.492   2.216  0.6686 -0.7310  1.1666
  940SOL    HW2 2635   1.701   1.423   2.088 -2.2521  0.2225 -0.4013
  941SOL     OW 2636   1.967   2.709   0.347 -0.1349 -0.1401 -0.2886
  941SOL    HW1 2637   1.948   2.619   0.374  0.4682  0.0299  0.7417
  941SOL    HW2 2638   2.056   2.704   0.310 -0.7841 -0.2893 -1.9213
  942SOL     OW 2639   1.431   2.796   2.370  0.3772 -0.3544 -0.2149
  942SOL    HW1 2640   1.465   2.707   2.374  2.2633  0.2653 -0.8374
  942SOL    HW2 2641   1.494   2.847   2.422 -0.4248  0.6684 -0.2242
  943SOL     OW 2642   2.447   1.848   2.382 -0.2030 -0.0151 -0.5085
  943SOL    HW1 2643   2.399   1.787   2.438 -0.7105  0.8274 -0.0018
  943SOL    HW2 2644   2.521   1.797   2.349 -0.4991 -0.8396  0.0628
  944SOL     OW 2645   2.058   0.441   0.118  0.6041  0.2131  0.0000
  944SOL    HW1 2646   2.011   0.357   0.114  0.1389  0.4787 -0.1947
  944SOL    HW2 2647   2.007   0.493   0.181  2.0725 -0.3723  1.7769
  945SOL     OW 2648   0.026   0.029   3.005  0.3768 -0.4130  0.2407
  945SOL    HW1 2649   0.093  -0.038   3.014 -0.1762 -1.1196 -0.7874
  945SOL    HW2 2650  -0.005   0.021   2.915  0.7099  1.6119 -0.1071
  946SOL     OW 2651   2.962   3.149   1.709 -0.8965 -0.3860 -0.5649
  946SOL    HW1 2652   2.951   3.113   1.621  0.4731 -0.2338 -0.8210
  946SOL    HW2 2653   2.999   3.236   1.695  1.6606 -1.2816  0.1888
  947SOL     OW 2654   3.240   1.698   1.084  0.1466  0.0339  0.2437
  947SOL    HW1 2655   3.169   1.677   1.023  0.3429 -0.0054  0.0256
  947SOL    HW2 2656   3.243   1.624   1.144 -0.0432  0.0685  0.2986
  948SOL     OW 2657   0.826   2.165   3.005  0.2192  0.0933  0.1998
  948SOL    HW1 2658   0.898   2.165   2.942 -1.4953 -0.2324 -1.8789
  948SOL    HW2 2659   0.841   2.243   3.059  2.8137 -0.7082  0.7282
  949SOL     OW 2660   0.681   0.407   1.078  0.0310 -0.4837  0.0211
  949SOL    HW1 2661   0.727   0.488   1.098 -0.1772 -0.6590  1.2502
  949SOL    HW2 2662   0.750   0.342   1.065  0.2105 -0.0524 -1.3092
  950SOL     OW 2663   0.421   2.148   1.167  0.1712 -0.0209 -0.3714
  950SOL    HW1 2664   0.373   2.143   1.250  1.2341 -0.9698  0.2209
  950SOL    HW2 2665   0.513   2.157   1.193  0.3050  2.6528 -1.4753
  951SOL     OW 2666   2.796   0.669   1.432 -0.1291  0.4585  0.1231
  951SOL    HW1 2667   2.834   0.739   1.378 -1.5702  0.8647 -0.4106
  951SOL    HW2 2668   2.829   0.685   1.520  1.3347  0.4760 -0.4103
  952SOL     OW 2669   2.333   0.875   0.239 -0.3924 -0.2389 -0.3439
  952SOL    HW1 2670   2.251   0.902   0.196 -0.7449 -0.4306  0.2020
  952SOL    HW2 2671   2.308   0.799   0.292  0.6683 -2.0088 -2.2401
  953SOL     OW 2672   1.739   1.661   1.329 -0.1566 -0.2354  0.0073
  953SOL    HW1 2673   1.747   1.630   1.239  0.2494  0.2950 -0.1418
  953SOL    HW2 2674   1.654   1.627   1.359 -0.0305 -0.8938 -0.3809
  954SOL     OW 2675   3.013   1.719   0.595  0.5317 -0.1804 -0.3794
  954SOL    HW1 2676   2.988   1.810   0.614  0.3916 -0.5517  1.4170
  954SOL    HW2 2677   2.952   1.691   0.527 -1.4535  0.1630  1.1631
  955SOL     OW 2678   1.831   1.519   1.691 -0.0992 -0.2760  0.0339
  955SOL    HW1 2679   1.887   1.494   1.617  0.4546  1.8984 -0.3428
  955SOL    HW2 2680   1.863   1.605   1.717 -3.4852  1.3019 -0.4463
  956SOL     OW 2681   2.883   0.865   0.581  0.7239 -0.0450  0.1781
  956SOL    HW1 2682   2.837   0.948   0.586 -1.6116 -1.2520  0.1912
  956SOL    HW2 2683   2.850   0.823   0.502  1.1252 -1.3507  0.6716
  957SOL     OW 2684   0.865   1.258   3.185  0.2679  0.0346  0.4662
  957SOL    HW1 2685   0.772   1.242   3.167 -0.1520  1.6705  0.9874
  957SOL    HW2 2686   0.882   1.209   3.266 -0.2354 -0.0052  0.5529
  958SOL     OW 2687   2.727   3.282   3.065  0.2038 -0.0022 -0.1010
  958SOL    HW1 2688   2.806   3.325   3.099 -1.0783  1.8808  0.6391
  958SOL    HW2 2689   2.688   3.346   3.006 -1.5357 -0.2955  0.6610
  959SOL     OW 2690   3.073   1.642   2.445  0.7720  0.4327  0.1202
  959SOL    HW1 2691   3.089   1.560   2.493 -1.2263 -0.5803 -0.7932
  959SOL    HW2 2692   3.077   1.617   2.353 -2.7401  0.5665 -0.2274
  960SOL     OW 2693   1.704   0.048   0.047  0.3530  0.0002  0.2741
  960SOL    HW1 2694   1.700  -0.016  -0.025 -2.3248  0.4460 -0.0793
  960SOL    HW2 2695   1.794   0.044   0.078  1.1025 -1.5665 -1.8902
  961SOL     OW 2696   0.166   1.440   2.353  0.2219  0.1701  0.5540
  961SOL    HW1 2697   0.225   1.391   2.296 -0.2201 -0.0281  0.2588
  961SOL    HW2 2698   0.187   1.532   2.337  0.9848  0.0905  1.0349
  962SOL     OW 2699   1.734   0.780   0.515 -0.2317 -0.2266  0.2241
  962SOL    HW1 2700   1.666   0.848   0.519  0.6145  0.6029  1.9594
  962SOL    HW2 2701   1.810   0.825   0.478 -0.4259 -0.9859 -1.1371
  963SOL     OW 2702   2.066   2.065   3.018 -0.5254 -0.2168  0.6094
  963SOL    HW1 2703   2.113   1.982   3.021 -2.1186 -1.5097 -3.4416
  963SOL    HW2 2704   1.974   2.042   3.035 -1.0248  0.6257 -0.7596
  964SOL     OW 2705   0.022   1.770   0.129  0.1690 -0.2076 -0.0064
  964SOL    HW1 2706  -0.029   1.697   0.093  0.6591 -0.2188 -0.7011
  964SOL    HW2 2707   0.025   1.753   0.223  1.9139 -2.1873 -0.3428
  965SOL     OW 2708   0.990   2.816   2.823  0.2896 -0.1011 -0.0572
  965SOL    HW1 2709   0.993   2.794   2.730  0.4629 -0.5587  0.0558
  965SOL    HW2 2710   0.941   2.745   2.863  0.2969  0.0466  0.2163
  966SOL     OW 2711   1.045   0.436   1.631  0.1732  0.2224  0.6141
  966SOL    HW1 2712   0.964   0.402   1.595  0.7927 -2.4903  1.5502
  966SOL    HW2 2713   1.018   0.491   1.705 -0.8247  0.4724  0.0724
  967SOL     OW 2714   1.667   0.848   3.177  0.0428  0.1444 -0.5245
  967SOL    HW1 2715   1.666   0.910   3.250 -0.9397  1.3123 -1.4850
  967SOL    HW2 2716   1.740   0.877   3.123  0.1377 -0.0931 -0.5217
  968SOL     OW 2717   3.206   1.787   2.151  0.5110  0.0440  0.2801
  968SOL    HW1 2718   3.140   1.830   2.096  1.2349  0.6787 -0.1025
  968SOL    HW2 2719   3.245   1.721   2.095 -0.1709 -0.7238  0.6809
  969SOL     OW 2720   2.920   0.694   1.743  0.2711 -0.4904  0.0640
  969SOL    HW1 2721   2.938   0.602   1.763  1.6224 -0.3391 -0.3468
  969SOL    HW2 2722   3.006   0.732   1.724 -0.2969  0.7906 -0.0812
  970SOL     OW 2723   0.884   0.074   2.596  0.1184 -0.2234  0.0598
  970SOL    HW1 2724   0.805   0.119   2.625  1.1878  1.8736 -0.0549
  970SOL    HW2 2725   0.875  -0.015   2.630 -0.6721  0.9067  3.1855
  971SOL     OW 2726   0.427   1.841   0.865  0.3009 -0.0218 -0.0310
  971SOL    HW1 2727   0.517   1.844   0.831  0.2086 -0.2611 -0.2906
  971SOL    HW2 2728   0.374   1.810   0.792  0.0766 -0.3578  0.2701
  972SOL     OW 2729   0.452   1.777   1.127  0.8797  0.0795  0.0301
  972SOL    HW1 2730   0.360   1.752   1.118  1.2348 -1.3796  0.2992
  972SOL    HW2 2731   0.473   1.823   1.046  0.3207 -0.8988 -0.6872
  973SOL     OW 2732   0.364   3.129   0.503 -0.4195  0.4503 -0.1403
  973SOL    HW1 2733   0.308   3.196   0.542 -0.5594  0.2770 -0.0423
  973SOL    HW2 2734   0.304   3.068   0.462 -0.5763 -1.6381  2.8746
  974SOL     OW 2735   2.912   1.772   2.739 -0.2163 -0.3096  0.1161
  974SOL    HW1 2736   2.984   1.812   2.787 -0.8779 -0.1805  1.0377
  974SOL    HW2 2737   2.946   1.688   2.709  0.4263 -0.0898  0.2222
  975SOL     OW 2738   1.657   3.306   0.288  0.4741  0.1633  0.0269
  975SOL    HW1 2739   1.696   3.377   0.236  0.9017  0.1891  0.3673
  975SOL    HW2 2740   1.641   3.346   0.374  1.0580 -0.2487  0.3340
  976SOL     OW 2741   1.517   1.690   2.998  0.3364  0.4345  0.2844
  976SOL    HW1 2742   1.425   1.718   3.001  0.3452  0.7118 -1.0933
  976SOL    HW2 2743   1.548   1.699   3.088 -0.7546  1.1535  0.6113
  977SOL     OW 2744   0.193   3.256   0.644  0.4471  0.0888 -0.0005
  977SOL    HW1 2745   0.153   3.333   0.603  2.1003  1.2114  0.3969
  977SOL    HW2 2746   0.119   3.203   0.673 -0.7347  1.1560 -0.9659
  978SOL     OW 2747   2.321   1.272   2.670 -0.3025 -0.1800 -0.4388
  978SOL    HW1 2748   2.314   1.195   2.726  0.8714 -1.4223 -1.8873
  978SOL    HW2 2749   2.394   1.322   2.706  0.4319 -0.9599 -0.8046
  979SOL     OW 2750   0.306   0.608   1.876 -0.1052 -0.1213  0.2020
  979SOL    HW1 2751   0.330   0.579   1.788 -1.1038 -0.2958 -0.0295
  979SOL    HW2 2752   0.377   0.666   1.903  0.1399  0.0522 -0.7879
  980SOL     OW 2753   0.938   0.615   0.007 -0.4117 -0.2295 -0.3029
  980SOL    HW1 2754   0.946   0.520  -0.004 -1.0022 -0.3295  0.0266
  980SOL    HW2 2755   1.027   0.645   0.022 -0.3379 -0.8947  0.7419
  981SOL     OW 2756   3.365   2.746   2.943  0.3305  0.0224  0.4501
  981SOL    HW1 2757   3.452   2.766   2.907  0.7891 -2.3389  0.0550
  981SOL    HW2 2758   3.312   2.724   2.866 -0.3780  0.6244  0.7626
  982SOL     OW 2759   2.953   0.795   0.845 -0.1111  0.0907  0.3795
  982SOL    HW1 2760   2.919   0.811   0.757  1.1418 -0.1461 -0.1576
  982SOL    HW2 2761   3.027   0.854   0.854 -0.3114  0.2187  1.3435
  983SOL     OW 2762   2.975   3.173   0.181  0.0341 -0.3388  0.2720
  983SOL    HW1 2763   3.024   3.127   0.249 -0.6603 -1.6905 -0.1134
  983SOL    HW2 2764   3.014   3.261   0.178  1.0818 -0.7508  1.3397
  984SOL     OW 2765   3.324   1.382   0.208  0.2257 -0.4356 -0.1954
  984SOL    HW1 2766   3.313   1.384   0.113  0.1288  0.3304 -0.1768
  984SOL    HW2 2767   3.241   1.348   0.241 -0.9710  2.2181 -0.2341
  985SOL     OW 2768   3.029   2.060   2.428 -0.2878  0.1610 -0.1796
  985SOL    HW1 2769   3.086   2.016   2.365 -0.1599 -0.1745  0.1671
  985SOL    HW2 2770   2.978   2.122   2.375  1.5439  1.6760 -0.2799
  986SOL     OW 2771   2.602   2.847   3.103  0.1346 -0.9324 -0.2515
  986SOL    HW1 2772   2.671   2.913   3.092 -1.9883  1.1238 -2.5529
  986SOL    HW2 2773   2.541   2.886   3.165  0.1580 -1.9720  0.4513
  987SOL     OW 2774   0.860   3.250   1.186  0.3219  0.0382 -0.1358
  987SOL    HW1 2775   0.844   3.159   1.162 -0.1078  0.4311 -1.4654
  987SOL    HW2 2776   0.875   3.294   1.102 -1.2121  1.5290  0.3282
  988SOL     OW 2777   1.534   2.785   3.123 -0.0262 -0.1089  0.2821
  988SOL    HW1 2778   1.500   2.840   3.195 -1.5198 -0.7385  0.0969
  988SOL    HW2 2779   1.501   2.698   3.143  2.0007 -0.9097  0.3588
  989SOL     OW 2780   2.448   1.038   2.365  0.0781 -0.0688 -0.0857
  989SOL    HW1 2781   2.530   1.067   2.326  0.4547 -1.5648 -0.4791
  989SOL    HW2 2782   2.399   1.118   2.382  1.5265  0.8320 -0.0525
  990SOL     OW 2783   2.644   2.357   0.069  0.0093 -0.4417 -0.8534
  990SOL    HW1 2784   2.655   2.440   0.023  0.9195 -0.9849 -1.6270
  990SOL    HW2 2785   2.594   2.302   0.009  0.3575 -0.8257 -0.7934
  991SOL     OW 2786   2.309   2.672   2.724  0.3873  0.1682 -0.2924
  991SOL    HW1 2787   2.248   2.612   2.767  1.5950 -1.1961 -0.4282
  991SOL    HW2 2788   2.324   2.741   2.788  0.2518 -0.5447  0.5218
  992SOL     OW 2789   2.296   1.273   2.388  0.2879  0.4784 -1.0648
  992SOL    HW1 2790   2.285   1.257   2.482  0.2069 -2.1098 -1.4325
  992SOL    HW2 2791   2.328   1.363   2.383  3.0381 -0.1463  1.6538
  993SOL     OW 2792   1.337   1.585   1.233  0.2697 -0.0788 -0.5573
  993SOL    HW1 2793   1.287   1.514   1.274 -0.6990  0.2121 -1.2102
  993SOL    HW2 2794   1.355   1.646   1.304  0.2642 -0.5003 -0.1879
  994SOL     OW 2795   0.307   1.052   2.531 -0.4432  0.4868  0.1229
  994SOL    HW1 2796   0.394   1.086   2.507 -0.5031  0.0373 -0.7507
  994SOL    HW2 2797   0.254   1.131   2.543  0.2833  0.8024  1.5184
  995SOL     OW 2798   1.517   0.097   3.073 -0.4160 -0.0147  0.0530
  995SOL    HW1 2799   1.489   0.050   2.995  0.4035  0.4043 -0.5094
  995SOL    HW2 2800   1.598   0.141   3.047  0.3822 -0.6175  1.4104
  996SOL     OW 2801   2.234   0.915   2.507  0.1834  0.2922  0.0795
  996SOL    HW1 2802   2.310   0.957   2.465  1.6198 -0.1826  2.0747
  996SOL    HW2 2803   2.185   0.988   2.545  1.3733  0.4191  1.4657
  997SOL     OW 2804   1.395   1.040   1.615 -0.1592 -0.3135  0.3601
  997SOL    HW1 2805   1.302   1.040   1.639  0.2552 -0.0313  2.1485
  997SOL    HW2 2806   1.419   0.948   1.611 -0.2523 -0.3805  1.1226
  998SOL     OW 2807   0.178   3.202   3.254 -0.2284  0.0022  0.1331
  998SOL    HW1 2808   0.136   3.133   3.306 -0.7881  0.0913 -0.1968
  998SOL    HW2 2809   0.174   3.170   3.164 -1.0286  0.7327 -0.0996
  999SOL     OW 2810   1.219   3.012   0.603 -0.0611 -0.3860  0.2076
  999SOL    HW1 2811   1.304   3.055   0.592 -0.1344  0.4394  2.2344
  999SOL    HW2 2812   1.163   3.080   0.641 -0.5325 -1.8924  2.4172
 1000SOL     OW 2813   0.811   2.295   0.406 -0.1106 -0.2442  0.1902
 1000SOL    HW1 2814   0.904   2.290   0.429 -0.2838 -0.9992  0.7870
 1000SOL    HW2 2815   0.768   2.237   0.469 -0.7896 -1.2101 -1.1284
 1001SOL     OW 2816   1.967   2.127   2.057  0.1218  0.4383  0.1556
 1001SOL    HW1 2817   1.910   2.053   2.035 -1.3172  1.3135  0.7518
 1001SOL    HW2 2818   1.991   2.164   1.972  1.1339 -0.8864 -0.1589
 1002SOL     OW 2819   1.875   1.133   3.135  0.1917  0.1965 -0.0697
 1002SOL    HW1 2820   1.787   1.111   3.166  0.8372 -0.1995  1.5995
 1002SOL    HW2 2821   1.903   1.206   3.191  1.2933 -0.3273  0.0910
 1003SOL     OW 2822   1.655   2.755   2.885  0.1101 -0.0868 -0.1278
 1003SOL    HW1 2823   1.723   2.701   2.926  1.1957  0.8444 -0.6504
 1003SOL    HW2 2824   1.602   2.785   2.959  0.9879  0.1422  0.4336
 1004SOL     OW 2825   1.254   1.409   3.186  0.2032 -0.2081 -0.2253
 1004SOL    HW1 2826   1.194   1.474   3.222 -0.9306 -0.9663 -0.6824
 1004SOL    HW2 2827   1.308   1.383   3.260 -2.0244 -1.6847  1.0085
 1005SOL     OW 2828   2.218   3.136   1.116  0.2441 -0.1000 -0.3187
 1005SOL    HW1 2829   2.147   3.094   1.164 -0.1288  2.0129  1.1252
 1005SOL    HW2 2830   2.181   3.217   1.083  1.7829  0.7293 -0.1229
 1006SOL     OW 2831   2.784   2.465   1.473 -0.4185 -0.1207 -0.9520
 1006SOL    HW1 2832   2.787   2.392   1.534 -0.9760 -0.6442 -1.5393
 1006SOL    HW2 2833   2.699   2.458   1.429 -0.8231  1.3346 -0.4756
 1007SOL     OW 2834   0.284   2.779   0.178 -0.3077 -1.1383 -0.1133
 1007SOL    HW1 2835   0.309   2.739   0.261 -0.3453  0.9744  0.9849
 1007SOL    HW2 2836   0.204   2.733   0.153 -1.3828 -0.5893  2.0384
 1008SOL     OW 2837   2.159   0.011   2.561  0.0652  0.9083  0.0067
 1008SOL    HW1 2838   2.122  -0.060   2.613 -0.1449  0.8070 -0.2797
 1008SOL    HW2 2839   2.217   0.058   2.621  3.0159 -1.5979 -0.6423
 1009SOL     OW 2840   1.477   2.034   1.269 -0.0341 -0.5996 -0.4236
 1009SOL    HW1 2841   1.490   2.026   1.175 -2.6147 -1.7407 -0.7807
 1009SOL    HW2 2842   1.390   1.995   1.285  0.3836 -0.6247  2.4439
 1010SOL     OW 2843   1.512   0.880   0.694 -0.3532  0.1085  0.4642
 1010SOL    HW1 2844   1.589   0.859   0.747 -0.7844 -1.6285  0.4571
 1010SOL    HW2 2845   1.454   0.805   0.705 -1.5502  0.8655 -0.4597
 1011SOL     OW 2846   0.693   2.122   0.604  0.3809  0.2186 -0.4054
 1011SOL    HW1 2847   0.614   2.167   0.634  0.5017 -0.4592  1.0438
 1011SOL    HW2 2848   0.662   2.052   0.548 -0.2317 -1.1457  1.5407
 1012SOL     OW 2849   2.271   1.679   1.262  0.0564 -0.3733  0.3689
 1012SOL    HW1 2850   2.281   1.722   1.347  0.4615  0.7910 -0.2501
 1012SOL    HW2 2851   2.357   1.687   1.221 -0.5020  0.2777 -0.6933
 1013SOL     OW 2852   0.554   1.961   0.416 -0.0564 -0.3916  0.0891
 1013SOL    HW1 2853   0.538   2.056   0.413 -0.9958 -0.5566 -1.9579
 1013SOL    HW2 2854   0.491   1.928   0.479 -2.0400  0.0157 -1.5651
 1014SOL     OW 2855   3.284   1.100   2.143  0.2967  0.2762  0.0287
 1014SOL    HW1 2856   3.334   1.020   2.156  2.7032  1.4647 -1.2824
 1014SOL    HW2 2857   3.233   1.083   2.063 -0.8270 -0.6181  0.8877
 1015SOL     OW 2858   1.852   2.841   3.292  0.6612  0.1141  0.0608
 1015SOL    HW1 2859   1.843   2.895   3.213 -1.0691 -1.4393 -0.8741
 1015SOL    HW2 2860   1.855   2.751   3.260  0.0094 -0.5491  1.7536
 1016SOL     OW 2861   0.305   0.038   2.200 -0.1474  0.3677  0.4064
 1016SOL    HW1 2862   0.260   0.049   2.284 -3.3360 -0.4351 -1.0325
 1016SOL    HW2 2863   0.363   0.114   2.193 -0.2155  0.7510  3.0355
 1017SOL     OW 2864   1.239   0.274   0.593 -1.0263  0.2483  0.3675
 1017SOL    HW1 2865   1.210   0.365   0.602  1.4723  1.1317  0.3260
 1017SOL    HW2 2866   1.279   0.270   0.506 -0.7580 -0.7830  0.5229
 1018SOL     OW 2867   2.150   2.528   2.868  0.3612  0.0210 -0.0552
 1018SOL    HW1 2868   2.129   2.538   2.961 -0.0165 -0.9728 -0.0280
 1018SOL    HW2 2869   2.177   2.437   2.858  1.5233  0.4179 -0.7183
 1019SOL     OW 2870   0.410   3.362   3.029 -0.1622  0.0970  0.0937
 1019SOL    HW1 2871   0.490   3.413   3.020  1.3720 -2.2869 -0.5952
 1019SOL    HW2 2872   0.353   3.393   2.959  0.7680  0.7546 -0.3868
 1020SOL     OW 2873   2.747   0.777   0.364 -0.1033  0.5333  0.2776
 1020SOL    HW1 2874   2.711   0.689   0.351  0.6314  0.4397 -1.2594
 1020SOL    HW2 2875   2.670   0.834   0.367 -0.5059  0.0588 -0.6479
 1021SOL     OW 2876   1.281   0.981   2.454 -0.4603 -0.2281 -0.1886
 1021SOL    HW1 2877   1.226   1.016   2.384 -0.1646  2.0532  0.6278
 1021SOL    HW2 2878   1.218   0.954   2.521 -0.6661  0.0069 -0.2830
 1022SOL     OW 2879   1.166   0.734   3.234  0.9234 -0.4480  0.2197
 1022SOL    HW1 2880   1.231   0.690   3.289 -0.7898 -0.5215  2.3288
 1022SOL    HW2 2881   1.147   0.816   3.280 -0.2736 -0.2984 -0.4964
 1023SOL     OW 2882   1.555   0.864   1.838 -0.3877 -0.0772 -0.4733
 1023SOL    HW1 2883   1.545   0.793   1.774 -0.9292 -0.0574 -0.4199
 1023SOL    HW2 2884   1.492   0.843   1.907 -1.3443  1.0200 -0.9761
 1024SOL     OW 2885   0.695   1.607   1.681  0.2835 -0.2098 -0.7321
 1024SOL    HW1 2886   0.639   1.683   1.674 -0.4727 -0.7312 -0.4886
 1024SOL    HW2 2887   0.700   1.589   1.775  1.1623  0.0459 -0.7193
 1025SOL     OW 2888   1.859   0.718   0.753  0.0202 -0.0360  0.3821
 1025SOL    HW1 2889   1.825   0.755   0.834  0.5457  0.3826  0.4186
 1025SOL    HW2 2890   1.802   0.752   0.685 -0.5330 -0.5342  0.5885
 1026SOL     OW 2891   2.777   1.321   0.888 -0.2125 -0.1270 -0.1534
 1026SOL    HW1 2892   2.829   1.352   0.814 -0.7018 -0.7023 -0.7606
 1026SOL    HW2 2893   2.789   1.387   0.956  1.4965 -0.3908 -0.1801
 1027SOL     OW 2894   1.004   1.250   2.079 -0.9203 -0.6078  0.4998
 1027SOL    HW1 2895   1.022   1.184   2.012  1.5280 -0.8863  1.3374
 1027SOL    HW2 2896   1.081   1.306   2.080 -0.8934 -0.5590  2.9864
 1028SOL     OW 2897   0.306   0.573   2.556 -0.9071 -0.1508  0.0520
 1028SOL    HW1 2898   0.214   0.575   2.581 -0.5771 -1.1453  1.5291
 1028SOL    HW2 2899   0.351   0.617   2.629  0.0427 -2.5029  0.9927
 1029SOL     OW 2900   1.316   2.903   2.946 -0.3185 -0.6317  0.0506
 1029SOL    HW1 2901   1.289   2.949   3.026  0.1466  0.6554 -0.4960
 1029SOL    HW2 2902   1.300   2.811   2.964  1.3486 -0.5665  2.2889
 1030SOL     OW 2903   0.227   0.328   2.408 -0.0126 -0.3541 -0.5329
 1030SOL    HW1 2904   0.289   0.381   2.458 -0.6822 -1.6575  1.8335
 1030SOL    HW2 2905   0.194   0.387   2.340  1.1570  1.4417  0.3732
 1031SOL     OW 2906   0.293   0.319   3.321  0.7635 -0.6309 -0.0176
 1031SOL    HW1 2907   0.357   0.301   3.252 -1.2960 -2.8290 -1.5366
 1031SOL    HW2 2908   0.255   0.234   3.341 -1.8621  0.5777  0.5778
 1032SOL     OW 2909   3.359   0.762   2.350  0.4330  0.2235  0.5471
 1032SOL    HW1 2910   3.404   0.743   2.432  0.6293  0.1067  0.4124
 1032SOL    HW2 2911   3.269   0.731   2.364 -0.1436  2.1096  1.4851
 1033SOL     OW 2912   0.664   1.633   3.124 -0.2770 -0.6113  0.1069
 1033SOL    HW1 2913   0.715   1.698   3.077 -0.1234 -0.5822  0.3121
 1033SOL    HW2 2914   0.704   1.629   3.211 -0.7264 -0.4654  0.3231
 1034SOL     OW 2915   1.858   0.488   2.704 -0.0692 -0.6749  0.5750
 1034SOL    HW1 2916   1.788   0.553   2.698  1.4690  1.0629  0.5350
 1034SOL    HW2 2917   1.846   0.447   2.789  0.5914  1.7611  1.9377
 1035SOL     OW 2918   1.526   2.993   0.543 -0.5922 -0.8582  0.9773
 1035SOL    HW1 2919   1.464   2.964   0.477  0.5483 -3.0508  0.7822
 1035SOL    HW2 2920   1.609   3.003   0.495 -0.4052  0.4788  1.5309
 1036SOL     OW 2921   2.907   2.979   0.831  0.7914 -0.0400 -0.5713
 1036SOL    HW1 2922   2.969   2.907   0.844  0.1514 -0.4024  0.6388
 1036SOL    HW2 2923   2.936   3.047   0.892 -0.2515 -0.4021  0.3670
 1037SOL     OW 2924   2.957   1.411   0.723  0.0849 -0.0452 -0.0424
 1037SOL    HW1 2925   2.946   1.451   0.637 -2.8662 -1.2637 -0.3559
 1037SOL    HW2 2926   3.022   1.342   0.709  0.9013  0.8653 -0.8606
 1038SOL     OW 2927   0.127   0.838   3.172  0.0012  0.1681  0.9924
 1038SOL    HW1 2928   0.058   0.782   3.138  0.3046  0.5836 -0.3388
 1038SOL    HW2 2929   0.187   0.778   3.217  0.0758 -0.5189 -0.0018
 1039SOL     OW 2930   1.792   3.318   2.944  0.1873 -0.1613  0.4178
 1039SOL    HW1 2931   1.799   3.413   2.957 -2.2874 -0.1111  1.8766
 1039SOL    HW2 2932   1.794   3.282   3.033  1.1346 -1.5350 -0.1198
 1040SOL     OW 2933   2.038   2.824   2.981  0.4328 -0.2649 -0.1999
 1040SOL    HW1 2934   2.113   2.821   3.039  0.0582  0.0988  0.3103
 1040SOL    HW2 2935   2.055   2.899   2.924  0.5533 -0.3093 -0.2233
 1041SOL     OW 2936   1.668   1.205   0.261 -0.2538 -0.5189 -0.2215
 1041SOL    HW1 2937   1.626   1.283   0.298  1.8620  1.0265 -0.9084
 1041SOL    HW2 2938   1.686   1.228   0.170 -0.3798 -2.1895 -0.7099
 1042SOL     OW 2939   0.621   1.012   2.431  0.4553  0.0291  0.2144
 1042SOL    HW1 2940   0.676   1.085   2.462 -0.5039  0.7861  0.1701
 1042SOL    HW2 2941   0.576   1.047   2.354  0.5561 -0.8739 -0.2736
 1043SOL     OW 2942   2.622   1.485   3.138  0.1281  0.0226 -0.4754
 1043SOL    HW1 2943   2.623   1.448   3.226  0.4519  0.4274 -0.3068
 1043SOL    HW2 2944   2.703   1.535   3.132  0.2894 -0.3172 -1.1430
 1044SOL     OW 2945   1.549   2.419   2.779  0.5479  0.6534 -0.5949
 1044SOL    HW1 2946   1.610   2.366   2.728 -0.8420 -0.0015 -1.6703
 1044SOL    HW2 2947   1.578   2.509   2.765  2.3270  0.2731  0.4164
 1045SOL     OW 2948   3.178   2.071   1.894  0.0335 -0.3566 -0.8039
 1045SOL    HW1 2949   3.256   2.027   1.929 -1.2908 -1.0599  1.4811
 1045SOL    HW2 2950   3.132   2.004   1.845 -1.1439 -1.1835  1.2988
 1046SOL     OW 2951   3.226   2.845   1.957  0.4891 -0.2450 -0.2585
 1046SOL    HW1 2952   3.204   2.770   1.902  0.7572 -0.5381  0.0297
 1046SOL    HW2 2953   3.192   2.822   2.043 -0.5598  0.5126 -0.4503
 1047SOL     OW 2954   1.119   0.725   2.563 -0.2074 -0.6737 -0.5105
 1047SOL    HW1 2955   1.030   0.761   2.574  0.0440 -0.1027 -0.2808
 1047SOL    HW2 2956   1.134   0.726   2.469  0.0756  0.5448 -0.4654
 1048SOL     OW 2957   0.550   2.238   2.187  0.3164 -1.0116  0.3557
 1048SOL    HW1 2958   0.631   2.286   2.207  0.7331 -1.3183 -0.5236
 1048SOL    HW2 2959   0.499   2.298   2.133 -0.0097 -0.8573  0.8255
 1049SOL     OW 2960   1.506   1.261   0.570 -0.4244 -0.0360  0.3155
 1049SOL    HW1 2961   1.513   1.355   0.587 -2.2743  0.0335  0.9404
 1049SOL    HW2 2962   1.501   1.221   0.657 -2.2105 -0.4416  0.0612
 1050SOL     OW 2963   1.927   3.252   2.023  0.4831  0.1068 -0.2150
 1050SOL    HW1 2964   2.011   3.218   1.991  0.4158 -0.3849  0.1332
 1050SOL    HW2 2965   1.861   3.195   1.984  0.1167  1.9195 -2.4597
 1051SOL     OW 2966   1.504   0.781   2.188 -0.0622  0.4528  0.2331
 1051SOL    HW1 2967   1.579   0.839   2.178  2.3265 -2.4559 -0.1001
 1051SOL    HW2 2968   1.438   0.818   2.129  0.6308  3.6529  1.2391
 1052SOL     OW 2969   1.989   0.140   1.627 -0.4198 -0.2732  0.6042
 1052SOL    HW1 2970   1.971   0.056   1.585  1.0048  0.2775 -1.2240
 1052SOL    HW2 2971   2.074   0.166   1.592 -1.6677  2.8340 -0.3842
 1053SOL     OW 2972   2.676   0.147   1.447 -0.8959 -0.2595  0.3727
 1053SOL    HW1 2973   2.735   0.129   1.374 -0.3959  0.7420  0.5067
 1053SOL    HW2 2974   2.611   0.208   1.411 -0.3292  0.6724  0.8867
 1054SOL     OW 2975   3.381   2.675   1.700  0.1844 -0.3440  0.3302
 1054SOL    HW1 2976   3.287   2.674   1.682  0.0961  0.6209  0.6904
 1054SOL    HW2 2977   3.422   2.648   1.618 -0.3365  1.0229 -0.4009
 1055SOL     OW 2978   1.506   2.197   0.372  0.5906  0.4146  0.1803
 1055SOL    HW1 2979   1.466   2.121   0.330  2.4740 -1.8321  2.1170
 1055SOL    HW2 2980   1.557   2.239   0.303  0.5073 -0.8463 -0.6697
 1056SOL     OW 2981   0.848   0.945   1.619  0.6328 -0.1020  0.2663
 1056SOL    HW1 2982   0.785   0.921   1.687 -2.3671 -0.2850 -2.3739
 1056SOL    HW2 2983   0.858   0.865   1.567 -0.3202  1.0269 -1.7830
 1057SOL     OW 2984   1.483   1.893   3.286 -0.3073 -0.4775 -0.2230
 1057SOL    HW1 2985   1.559   1.850   3.248 -0.4032 -1.2777  0.4584
 1057SOL    HW2 2986   1.432   1.822   3.325 -0.8793  0.1644  0.2309
 1058SOL     OW 2987   0.601   1.755   2.790  0.2751  0.0015  0.3397
 1058SOL    HW1 2988   0.522   1.765   2.736 -0.7308  0.1463  1.7982
 1058SOL    HW2 2989   0.617   1.842   2.825  0.3322 -0.3009  1.0682
 1059SOL     OW 2990   2.118   0.086   1.269  0.0439  0.2831  0.8234
 1059SOL    HW1 2991   2.151   0.001   1.299 -0.8883 -0.3668  0.0438
 1059SOL    HW2 2992   2.122   0.082   1.174  0.1464  1.1931  0.7752
 1060SOL     OW 2993   1.231   2.018   3.288  0.0628  0.2382  0.6036
 1060SOL    HW1 2994   1.253   2.108   3.312  0.4548  0.3242 -0.0408
 1060SOL    HW2 2995   1.314   1.971   3.295  0.1971  0.2699 -0.5445
 1061SOL     OW 2996   2.372   2.376   0.164 -0.3532  0.4613  0.0328
 1061SOL    HW1 2997   2.467   2.381   0.167 -0.2716 -0.4498 -0.5448
 1061SOL    HW2 2998   2.348   2.316   0.234 -0.3333 -0.8402 -1.0287
 1062SOL     OW 2999   1.344   2.532   1.761 -0.3403  0.4431  0.1910
 1062SOL    HW1 3000   1.337   2.612   1.710 -0.2564  0.8762  0.8501
 1062SOL    HW2 3001   1.411   2.550   1.827  0.5733 -0.5870 -0.4149
 1063SOL     OW 3002   0.177   1.989   0.631  0.1658 -0.1197  0.6665
 1063SOL    HW1 3003   0.241   1.918   0.625  0.4477  0.1940 -0.1952
 1063SOL    HW2 3004   0.117   1.975   0.558  1.3602  1.5885 -0.7361
 1064SOL     OW 3005   0.294   0.681   3.327 -0.2684 -0.4347 -0.5894
 1064SOL    HW1 3006   0.301   0.635   3.411  0.5601  1.0766  0.2097
 1064SOL    HW2 3007   0.355   0.635   3.269 -0.8137 -1.4581 -0.3745
 1065SOL     OW 3008   2.875   0.679   3.118 -0.6409  0.4490  0.0115
 1065SOL    HW1 3009   2.798   0.703   3.066 -0.5115  2.3270  0.6176
 1065SOL    HW2 3010   2.838   0.648   3.201 -0.7732  2.0451  0.5824
 1066SOL     OW 3011   0.254   1.957   3.015 -0.3957  0.0735 -0.1088
 1066SOL    HW1 3012   0.286   1.992   3.097  3.3835  0.9991 -1.7730
 1066SOL    HW2 3013   0.298   1.872   3.006 -1.3561 -0.3690 -0.8250
 1067SOL     OW 3014   1.931   1.284   0.955 -0.0627 -0.0778  0.0736
 1067SOL    HW1 3015   1.914   1.363   0.902  1.5497  0.2928  0.0420
 1067SOL    HW2 3016   1.964   1.318   1.038 -1.8845 -0.6828  1.0888
 1068SOL     OW 3017   1.068   0.773   0.528  0.1749 -0.1043 -0.2850
 1068SOL    HW1 3018   1.056   0.811   0.441 -1.2203  1.9375  0.7200
 1068SOL    HW2 3019   1.028   0.836   0.587 -1.2255 -2.6419  1.6414
 1069SOL     OW 3020   0.576   0.508   2.152 -0.1486  0.2426  0.1078
 1069SOL    HW1 3021   0.567   0.586   2.206 -0.1187 -0.3179  0.9335
 1069SOL    HW2 3022   0.670   0.493   2.147 -0.1836 -0.1540  0.5614
 1070SOL     OW 3023   3.364   0.685   1.334 -0.2824  0.5254 -0.3752
 1070SOL    HW1 3024   3.281   0.678   1.286  0.3627  0.5169 -1.5403
 1070SOL    HW2 3025   3.391   0.776   1.321 -0.4722  0.7328  0.6389
 1071SOL     OW 3026   2.119   1.400   1.134 -0.0573 -0.1651 -0.0637
 1071SOL    HW1 3027   2.177   1.440   1.069  1.3659 -0.4792  0.9732
 1071SOL    HW2 3028   2.169   1.401   1.215 -0.0874 -3.5540  0.1657
 1072SOL     OW 3029   0.609   0.983   0.068 -0.3708  0.1400 -0.3689
 1072SOL    HW1 3030   0.521   0.949   0.053 -0.1691  0.1894 -1.8667
 1072SOL    HW2 3031   0.658   0.909   0.103 -0.8483 -0.0486 -0.0891
 1073SOL     OW 3032   0.626   1.094   3.202 -0.0303  0.0183  0.3484
 1073SOL    HW1 3033   0.596   1.016   3.154 -0.6559  0.4671 -0.0043
 1073SOL    HW2 3034   0.604   1.075   3.293  0.0510 -0.3252  0.2991
 1074SOL     OW 3035   1.347   2.226   2.450 -0.5209  0.2257 -0.1029
 1074SOL    HW1 3036   1.300   2.309   2.443 -0.3282  0.3040 -0.5068
 1074SOL    HW2 3037   1.303   2.179   2.521  0.1896  1.2068  1.0166
 1075SOL     OW 3038   0.285   1.713   0.259  0.3596  0.4167 -0.7611
 1075SOL    HW1 3039   0.376   1.682   0.265  0.9275  2.1214  0.5234
 1075SOL    HW2 3040   0.232   1.635   0.272  1.6428 -0.5499 -1.0883
 1076SOL     OW 3041   1.403   0.459   2.438  0.1038  0.1889 -0.1326
 1076SOL    HW1 3042   1.406   0.555   2.441 -1.1653  0.3313 -1.9847
 1076SOL    HW2 3043   1.319   0.436   2.477  1.3723 -0.3808  2.4713
 1077SOL     OW 3044   2.672   0.124   0.627  0.3895 -0.0691 -0.6765
 1077SOL    HW1 3045   2.718   0.091   0.704  0.5962  1.3043 -0.1932
 1077SOL    HW2 3046   2.741   0.162   0.573 -0.1075  1.7456 -0.0783
 1078SOL     OW 3047   2.507   2.383   0.659 -0.6030 -0.5265 -0.1991
 1078SOL    HW1 3048   2.527   2.293   0.632 -0.0429 -0.0030 -1.6192
 1078SOL    HW2 3049   2.453   2.373   0.737 -0.0531 -2.0898  0.0174
 1079SOL     OW 3050   2.152   0.345   2.701 -0.4173 -0.5070  0.2770
 1079SOL    HW1 3051   2.154   0.304   2.614 -0.4296 -1.9199  0.9236
 1079SOL    HW2 3052   2.175   0.436   2.684  1.9361 -1.2418 -0.9212
 1080SOL     OW 3053   1.685   2.628   2.069  0.3392 -0.8394 -0.5831
 1080SOL    HW1 3054   1.616   2.692   2.088  1.5717  0.9345 -1.7505
 1080SOL    HW2 3055   1.738   2.626   2.149  0.4879 -0.1174 -0.6540
 1081SOL     OW 3056   1.145   1.005   2.693 -0.0558  0.0328 -0.7331
 1081SOL    HW1 3057   1.150   0.938   2.760 -1.1430  0.6303 -0.0160
 1081SOL    HW2 3058   1.066   1.055   2.715 -0.1284  0.5845 -2.1348
 1082SOL     OW 3059   1.731   2.603   0.244  0.3262  0.1032 -0.0487
 1082SOL    HW1 3060   1.777   2.681   0.274 -0.2240  0.7139 -0.7277
 1082SOL    HW2 3061   1.644   2.635   0.219 -0.2057 -0.8890  0.4977
 1083SOL     OW 3062   0.810   2.366   2.235  0.1135  0.3150 -0.3740
 1083SOL    HW1 3063   0.827   2.457   2.258  0.7470  0.1572 -0.2009
 1083SOL    HW2 3064   0.880   2.343   2.174  0.0322 -0.0872 -0.3207
 1084SOL     OW 3065   0.091   0.081   0.288 -0.2901 -0.5119 -0.1177
 1084SOL    HW1 3066   0.061   0.103   0.376  0.1260  0.7194 -0.2689
 1084SOL    HW2 3067   0.159   0.015   0.302 -1.8897 -2.1498  0.3096
 1085SOL     OW 3068   0.458   1.334   1.777  0.5038 -0.1495  0.4188
 1085SOL    HW1 3069   0.407   1.399   1.728 -0.5991 -0.0579  1.6413
 1085SOL    HW2 3070   0.418   1.332   1.864  1.3967 -1.4697  0.8347
 1086SOL     OW 3071   2.553   1.372   2.822  0.3644  0.5193  0.5200
 1086SOL    HW1 3072   2.649   1.369   2.820  0.3594  0.7929 -1.0947
 1086SOL    HW2 3073   2.530   1.453   2.778 -0.6335 -0.0416 -0.0275
 1087SOL     OW 3074   0.083   1.063   3.354 -0.9520  0.6319 -0.0748
 1087SOL    HW1 3075   0.156   1.111   3.315 -0.1189 -0.7159 -0.2448
 1087SOL    HW2 3076   0.078   0.981   3.304 -1.6777  0.0888  0.8367
 1088SOL     OW 3077   2.643   0.313   2.491 -0.1446 -0.1577  0.1202
 1088SOL    HW1 3078   2.710   0.293   2.426  0.1303 -0.0789  0.3762
 1088SOL    HW2 3079   2.599   0.229   2.507 -1.4810  0.1762 -1.5595
 1089SOL     OW 3080   2.170   2.512   3.131 -0.0177  0.0140 -0.1932
 1089SOL    HW1 3081   2.167   2.438   3.192 -1.4980 -0.1423 -0.4212
 1089SOL    HW2 3082   2.233   2.572   3.171  1.7848 -1.6545 -0.3818
 1090SOL     OW 3083   0.460   3.214   0.833  0.3398  0.6026 -0.0999
 1090SOL    HW1 3084   0.412   3.215   0.750  0.3292 -1.6105 -0.1767
 1090SOL    HW2 3085   0.400   3.257   0.895 -2.6042 -3.2925  0.1466
 1091SOL     OW 3086   1.136   0.947   1.673 -0.1463 -0.6104  0.5762
 1091SOL    HW1 3087   1.054   0.972   1.630 -0.9831 -0.4763  2.1859
 1091SOL    HW2 3088   1.135   0.852   1.673 -0.1505 -0.6113  0.3336
 1092SOL     OW 3089   1.472   2.676   0.171  0.3902 -0.1632  0.2662
 1092SOL    HW1 3090   1.462   2.739   0.243  0.3024 -1.3569  1.3428
 1092SOL    HW2 3091   1.423   2.715   0.099  0.6447  1.1725  0.7735
 1093SOL     OW 3092   0.615   0.765   0.536 -0.4167 -0.0476 -0.5298
 1093SOL    HW1 3093   0.625   0.739   0.444  1.0236 -0.7128 -0.2103
 1093SOL    HW2 3094   0.702   0.750   0.574  0.0046  3.3501  0.1702
 1094SOL     OW 3095   1.746   3.057   1.946 -0.3648  0.6483  0.1737
 1094SOL    HW1 3096   1.684   3.047   2.018  1.2615 -1.6481  1.4034
 1094SOL    HW2 3097   1.730   2.982   1.889 -1.0340  1.9613 -1.4644
 1095SOL     OW 3098   2.693   1.182   1.981  0.2231 -0.0435  0.1801
 1095SOL    HW1 3099   2.784   1.208   1.999  0.1036  1.2895 -0.9712
 1095SOL    HW2 3100   2.701   1.107   1.922  0.5838  0.1908 -0.0749
 1096SOL     OW 3101   0.712   1.248   1.732  0.0306  0.0264  0.0799
 1096SOL    HW1 3102   0.726   1.217   1.642  0.4119  1.9784 -0.5753
 1096SOL    HW2 3103   0.638   1.307   1.726  0.8444  1.1587  0.7978
 1097SOL     OW 3104   2.147   2.477   0.240  0.1724  0.3138  0.4219
 1097SOL    HW1 3105   2.137   2.554   0.184 -2.0484 -0.0803  0.1592
 1097SOL    HW2 3106   2.236   2.447   0.225 -0.2180  0.4000 -2.6884
 1098SOL     OW 3107   0.015   1.475   1.562  0.2708 -0.2019 -0.2959
 1098SOL    HW1 3108  -0.010   1.495   1.472  0.0054  0.9013 -0.0023
 1098SOL    HW2 3109  -0.064   1.494   1.613 -0.0287 -2.1408  0.0382
 1099SOL     OW 3110   2.468   0.047   1.244  0.3675  0.2913 -0.1949
 1099SOL    HW1 3111   2.392   0.017   1.294  0.5042  0.3574  0.0561
 1099SOL    HW2 3112   2.489   0.133   1.282  0.5716  0.2700 -0.2576
 1100SOL     OW 3113   0.064   1.374   2.832 -0.1020  0.1097 -0.1848
 1100SOL    HW1 3114   0.119   1.350   2.906 -2.0329  1.3523  1.7989
 1100SOL    HW2 3115   0.108   1.450   2.793 -0.5088  1.3478  1.6214
 1101SOL     OW 3116   2.625   0.888   0.050 -0.1961 -0.0555  0.4081
 1101SOL    HW1 3117   2.690   0.924  -0.010 -0.6957 -1.0151 -0.7499
 1101SOL    HW2 3118   2.542   0.927   0.023 -0.6416 -1.5135 -0.4613
 1102SOL     OW 3119   2.084   0.631   2.725  0.2173  0.2706 -0.1215
 1102SOL    HW1 3120   2.003   0.581   2.714  1.7902 -2.7628  0.8981
 1102SOL    HW2 3121   2.074   0.676   2.809  0.1841 -1.5614  0.9265
 1103SOL     OW 3122   0.457   3.300   1.566  0.2093 -0.1149 -0.1059
 1103SOL    HW1 3123   0.498   3.372   1.615 -0.3550  0.8188 -0.9658
 1103SOL    HW2 3124   0.520   3.280   1.497  0.1656 -0.1523 -0.1345
 1104SOL     OW 3125   2.427   1.875   0.815 -0.1161  0.7839  0.9959
 1104SOL    HW1 3126   2.406   1.964   0.841  0.4241  1.3945 -0.5896
 1104SOL    HW2 3127   2.511   1.857   0.858  1.0688  2.0013 -0.7181
 1105SOL     OW 3128   0.665   0.319   0.338 -0.2471  0.0541  0.1711
 1105SOL    HW1 3129   0.644   0.259   0.410 -0.4002  0.8509  0.8066
 1105SOL    HW2 3130   0.596   0.385   0.341 -0.6924 -0.3190 -1.2043
 1106SOL     OW 3131   2.667   2.219   2.607 -0.1044 -0.9658  0.1466
 1106SOL    HW1 3132   2.718   2.177   2.538 -0.6342  0.3829 -1.1239
 1106SOL    HW2 3133   2.585   2.169   2.609 -0.5596 -0.3072 -1.0535
 1107SOL     OW 3134   1.933   2.179   1.768  0.5696  0.1797 -0.0479
 1107SOL    HW1 3135   1.863   2.164   1.705 -0.1698  2.4012  0.1412
 1107SOL    HW2 3136   1.961   2.269   1.752  1.6456  0.1855  1.5660
 1108SOL     OW 3137   0.657   2.496   1.293 -0.6491 -0.0698  0.0974
 1108SOL    HW1 3138   0.658   2.413   1.246 -0.4501 -0.0514  0.0656
 1108SOL    HW2 3139   0.644   2.563   1.225 -0.0180 -0.0176  0.0205
 1109SOL     OW 3140   1.721   0.866   0.930 -0.2508 -0.2295  0.2813
 1109SOL    HW1 3141   1.687   0.834   1.014  3.0927 -1.0528  1.4797
 1109SOL    HW2 3142   1.738   0.959   0.945 -1.2406  0.0231 -0.0923
 1110SOL     OW 3143   2.958   3.057   3.167  0.2305 -0.6102  0.0371
 1110SOL    HW1 3144   2.981   2.964   3.169  0.8014 -0.4903 -0.5762
 1110SOL    HW2 3145   3.017   3.097   3.232 -0.5698 -0.7800  0.8950
 1111SOL     OW 3146   3.038   0.101   0.137  0.8824  0.2185 -0.2003
 1111SOL    HW1 3147   3.130   0.077   0.150  0.5082 -0.8747  0.5162
 1111SOL    HW2 3148   3.042   0.184   0.088  2.2173 -1.7301 -3.7351
 1112SOL     OW 3149   2.201   2.968   0.096  0.2146  0.1207 -0.3270
 1112SOL    HW1 3150   2.216   3.051   0.052  0.8856 -0.6157 -1.5464
 1112SOL    HW2 3151   2.288   2.927   0.102 -0.4055 -1.6111 -2.1191
 1113SOL     OW 3152   0.838   0.424   2.138 -0.3329  1.1313 -0.3179
 1113SOL    HW1 3153   0.846   0.352   2.201 -0.6197  1.4641  0.1025
 1113SOL    HW2 3154   0.860   0.385   2.054 -1.3304  0.3397 -0.2256
 1114SOL     OW 3155   2.615   1.856   1.073 -0.0890 -0.4041  0.1430
 1114SOL    HW1 3156   2.698   1.874   1.116  0.1642  1.0937 -0.9067
 1114SOL    HW2 3157   2.597   1.764   1.093  2.1323 -0.9551 -0.1659
 1115SOL     OW 3158   1.949   3.102   1.360  0.2623  0.0907 -0.0595
 1115SOL    HW1 3159   1.876   3.143   1.313  1.1866  1.4627 -0.3528
 1115SOL    HW2 3160   1.915   3.016   1.386 -0.7736 -0.1554 -1.9905
 1116SOL     OW 3161   0.727   0.788   2.310  0.2203 -0.3718  0.2772
 1116SOL    HW1 3162   0.703   0.877   2.334  2.0914  0.3791 -0.4784
 1116SOL    HW2 3163   0.644   0.747   2.284 -0.6490  1.1715  0.5158
 1117SOL     OW 3164   0.998   1.690   2.802 -0.5783  0.3687  0.6129
 1117SOL    HW1 3165   0.945   1.737   2.867 -0.0281 -0.1155  1.4198
 1117SOL    HW2 3166   1.060   1.755   2.769 -0.2531  0.3826  1.2470
 1118SOL     OW 3167   0.732   0.710   3.214 -0.3634  0.1863 -0.7637
 1118SOL    HW1 3168   0.773   0.751   3.137  1.2135  0.4300  0.1640
 1118SOL    HW2 3169   0.804   0.696   3.275 -1.5603 -0.1147  0.6415
 1119SOL     OW 3170   0.833   1.689   3.370 -0.7464  0.1938 -0.3590
 1119SOL    HW1 3171   0.791   1.771   3.396  1.5897  1.2862  0.2761
 1119SOL    HW2 3172   0.850   1.643   3.453 -0.2982 -0.0005 -0.5552
 1120SOL     OW 3173   0.255   2.205   0.801 -0.0697 -0.7314 -0.0536
 1120SOL    HW1 3174   0.210   2.141   0.746 -1.8236  0.3029  0.0865
 1120SOL    HW2 3175   0.242   2.289   0.756  1.2305 -0.3085  0.3225
 1121SOL     OW 3176   0.086   0.950   1.348  0.3564  0.3828  0.8828
 1121SOL    HW1 3177   0.070   0.970   1.441  2.2601  0.1757  1.2847
 1121SOL    HW2 3178   0.158   1.007   1.323  0.8199 -0.5905 -0.0708
 1122SOL     OW 3179   1.248   2.737   1.171 -0.0051 -0.6226  0.3700
 1122SOL    HW1 3180   1.239   2.781   1.086 -1.0858  1.7278  1.6156
 1122SOL    HW2 3181   1.335   2.698   1.169  0.5510  0.5930 -1.2886
 1123SOL     OW 3182   0.127   2.619   3.195 -0.4150  0.3350  0.4886
 1123SOL    HW1 3183   0.219   2.640   3.213  0.0686 -1.9694  0.9595
 1123SOL    HW2 3184   0.131   2.549   3.130 -1.6181 -2.5465  3.2527
 1124SOL     OW 3185   0.317   2.906   0.829 -0.3983 -0.3040  0.1876
 1124SOL    HW1 3186   0.258   2.965   0.875  0.2105  0.0512  0.5235
 1124SOL    HW2 3187   0.330   2.947   0.743 -1.1453 -0.7136 -0.1220
 1125SOL     OW 3188   0.062   0.759   2.601 -0.7385 -0.2647 -0.1561
 1125SOL    HW1 3189   0.033   0.846   2.630 -1.2462 -1.0404  1.8629
 1125SOL    HW2 3190   0.117   0.728   2.673 -1.2564 -1.9471 -0.4520
 1126SOL     OW 3191   2.271   2.237   1.889  0.4311  0.3001 -1.1218
 1126SOL    HW1 3192   2.238   2.155   1.853 -0.5010 -0.3745  1.0633
 1126SOL    HW2 3193   2.195   2.294   1.895  0.7821  0.7963 -1.2730
 1127SOL     OW 3194   0.710   3.293   0.878 -0.1221 -0.2067  0.1635
 1127SOL    HW1 3195   0.734   3.255   0.793  0.8876 -0.5045  0.5778
 1127SOL    HW2 3196   0.615   3.283   0.882  0.0110 -1.7771 -0.1740
 1128SOL     OW 3197   0.484   0.872   2.645  0.4185 -0.0321 -0.0674
 1128SOL    HW1 3198   0.396   0.890   2.678  0.3993  0.4069 -0.3624
 1128SOL    HW2 3199   0.496   0.932   2.571  2.2101  2.3354  1.9654
 1129SOL     OW 3200   0.614   0.866   1.750  0.0592  0.0086  0.0605
 1129SOL    HW1 3201   0.552   0.939   1.752  0.6897  0.5524  0.2928
 1129SOL    HW2 3202   0.610   0.828   1.838 -0.3584 -0.3224 -0.0967
 1130SOL     OW 3203   0.962   2.261   0.658 -0.2688  0.2637  0.4554
 1130SOL    HW1 3204   0.881   2.284   0.704 -1.9451 -2.0958 -1.0704
 1130SOL    HW2 3205   1.013   2.211   0.722 -0.3305  1.1411  1.2087
 1131SOL     OW 3206   0.763   1.532   2.789  0.1096  0.5733  0.3097
 1131SOL    HW1 3207   0.709   1.611   2.794 -2.6058 -0.7531 -3.1935
 1131SOL    HW2 3208   0.853   1.562   2.798 -0.8143  4.0717 -0.8437
 1132SOL     OW 3209   1.485   2.837   2.106 -0.2356  0.2955 -0.0935
 1132SOL    HW1 3210   1.425   2.821   2.178 -0.4351 -1.9897 -0.6880
 1132SOL    HW2 3211   1.437   2.809   2.028  1.4771 -1.5018 -0.5956
 1133SOL     OW 3212   2.228   1.665   1.960 -0.2094 -0.8498  0.0590
 1133SOL    HW1 3213   2.276   1.584   1.976  1.0207 -0.0515  0.5341
 1133SOL    HW2 3214   2.273   1.730   2.014 -2.0529 -0.1370  0.8077
 1134SOL     OW 3215   2.240   0.238   1.498  0.2836  0.3253 -0.0944
 1134SOL    HW1 3216   2.224   0.171   1.431  0.1874  0.2840 -0.0300
 1134SOL    HW2 3217   2.305   0.296   1.458  1.2089 -0.4352  0.2697
 1135SOL     OW 3218   0.041   2.664   0.076  0.2708  1.0460  0.1649
 1135SOL    HW1 3219   0.011   2.581   0.112 -3.5150  2.3600  0.4763
 1135SOL    HW2 3220   0.053   2.647  -0.018 -0.8568  0.2030  0.1519
 1136SOL     OW 3221   1.564   2.486   3.056 -0.7588 -0.1861 -0.1082
 1136SOL    HW1 3222   1.653   2.514   3.033  0.0270 -1.0758  1.6795
 1136SOL    HW2 3223   1.532   2.442   2.977 -0.0793  1.1079 -1.1727
 1137SOL     OW 3224   0.547   2.066   2.394 -0.4454 -0.6141  0.0582
 1137SOL    HW1 3225   0.451   2.061   2.385 -0.5827  0.1699  0.9226
 1137SOL    HW2 3226   0.574   2.128   2.327 -0.7167  0.2149  0.6920
 1138SOL     OW 3227   0.692   1.473   2.525 -0.0341 -0.3644 -0.0569
 1138SOL    HW1 3228   0.731   1.480   2.612  0.6718 -1.7710 -0.2347
 1138SOL    HW2 3229   0.749   1.525   2.469 -1.5976  2.2491  0.5870
 1139SOL     OW 3230   3.343   1.432   3.313 -0.1730 -0.2284  0.5602
 1139SOL    HW1 3231   3.421   1.460   3.266 -1.2612  0.5570 -0.8616
 1139SOL    HW2 3232   3.318   1.350   3.271 -0.8110  0.1646  0.1631
 1140SOL     OW 3233   1.468   2.502   2.000 -0.2415 -0.2467  0.6720
 1140SOL    HW1 3234   1.561   2.515   2.018  0.1175 -2.6276  0.9608
 1140SOL    HW2 3235   1.453   2.410   2.023 -1.8826 -0.9069 -2.5724
 1141SOL     OW 3236   2.819   2.231   0.672 -0.4591  0.2786 -0.1258
 1141SOL    HW1 3237   2.852   2.312   0.634 -1.3248  0.3685 -0.6926
 1141SOL    HW2 3238   2.739   2.212   0.623 -0.4197 -0.7607  0.1999
 1142SOL     OW 3239   2.364   0.613   2.630  0.0701  0.2323 -0.1823
 1142SOL    HW1 3240   2.394   0.698   2.598  1.8070  1.2778  3.6328
 1142SOL    HW2 3241   2.289   0.634   2.685 -1.1226 -1.1093 -1.2277
 1143SOL     OW 3242   0.310   2.316   0.186 -0.5331 -0.2664  1.0276
 1143SOL    HW1 3243   0.224   2.274   0.177  0.0101 -1.0748 -0.9022
 1143SOL    HW2 3244   0.363   2.276   0.118  1.3205  0.4232  2.0044
 1144SOL     OW 3245   2.598   2.624   0.778  0.3725 -0.2823 -0.3942
 1144SOL    HW1 3246   2.528   2.684   0.754 -0.5631 -0.5772  1.3942
 1144SOL    HW2 3247   2.566   2.538   0.752 -0.2378 -0.4893  0.9436
 1145SOL     OW 3248   1.072   0.736   1.892  0.1664 -1.0385 -0.0640
 1145SOL    HW1 3249   1.011   0.809   1.902  0.5939 -0.6116 -0.5061
 1145SOL    HW2 3250   1.016   0.662   1.867 -0.2393 -0.7948  0.1071
 1146SOL     OW 3251   3.362   1.836   3.106 -0.0798 -0.8298 -0.1016
 1146SOL    HW1 3252   3.393   1.909   3.159 -1.2017  0.6724 -1.4142
 1146SOL    HW2 3253   3.403   1.849   3.021  1.0554 -2.7404  0.0992
 1147SOL     OW 3254   3.156   2.256   0.748  0.0803 -0.1696  0.7506
 1147SOL    HW1 3255   3.211   2.262   0.826 -1.3231  1.0745  1.6989
 1147SOL    HW2 3256   3.184   2.328   0.692 -0.9747  0.8919  1.5383
 1148SOL     OW 3257   2.215   3.057   2.794 -0.2173  0.0071 -0.4511
 1148SOL    HW1 3258   2.206   3.049   2.699  1.2226 -2.0764 -0.4874
 1148SOL    HW2 3259   2.308   3.044   2.810 -0.5127 -0.1766  1.2925
 1149SOL     OW 3260   2.962   3.076   1.971  0.0721  0.5908 -0.3823
 1149SOL    HW1 3261   2.954   3.103   1.880  1.2202  2.5068  0.0011
 1149SOL    HW2 3262   3.043   3.118   2.001  0.3213 -0.8960  1.2226
 1150SOL     OW 3263   2.737   1.048   2.323 -0.0018 -0.2846 -0.0857
 1150SOL    HW1 3264   2.741   1.086   2.410 -1.3961 -0.6320  0.1473
 1150SOL    HW2 3265   2.820   1.074   2.282 -0.1628  1.5396  0.6454
 1151SOL     OW 3266   0.541   2.868   1.266 -0.4089 -0.7482  0.4322
 1151SOL    HW1 3267   0.483   2.931   1.309  0.4597 -0.3590  1.0602
 1151SOL    HW2 3268   0.487   2.829   1.198 -1.1215  0.2928  0.3774
 1152SOL     OW 3269   0.234   1.998   0.321  0.0118 -0.1554  0.7239
 1152SOL    HW1 3270   0.283   1.928   0.279 -1.3399 -1.1776  0.7565
 1152SOL    HW2 3271   0.162   1.953   0.367 -0.1139  1.1411  1.8845
 1153SOL     OW 3272   2.295   0.435   2.417  0.3265  0.1675 -0.1605
 1153SOL    HW1 3273   2.335   0.487   2.488 -0.3576  0.3937  0.0623
 1153SOL    HW2 3274   2.231   0.494   2.377 -0.6045 -0.5657  0.2223
 1154SOL     OW 3275   2.139   1.152   1.537  0.6594  0.0697 -0.5567
 1154SOL    HW1 3276   2.170   1.125   1.450  0.2702 -1.3253 -0.2921
 1154SOL    HW2 3277   2.124   1.070   1.583 -1.3735  0.7265  0.0467
 1155SOL     OW 3278   2.069   1.789   1.445 -0.2535  0.2005  0.0032
 1155SOL    HW1 3279   1.990   1.796   1.498 -0.2881  1.5172 -0.1806
 1155SOL    HW2 3280   2.141   1.800   1.507 -0.1819 -1.3209  0.2205
 1156SOL     OW 3281   1.753   3.171   1.195 -0.6993 -0.4650 -0.0927
 1156SOL    HW1 3282   1.690   3.189   1.265 -1.7481 -0.7427 -0.9378
 1156SOL    HW2 3283   1.701   3.173   1.115  0.6041  0.5598 -0.9596
 1157SOL     OW 3284   3.266   1.836   2.424  0.4550  0.2404 -0.4394
 1157SOL    HW1 3285   3.254   1.830   2.329 -0.3948  0.9172 -0.3909
 1157SOL    HW2 3286   3.191   1.788   2.460  0.3888  0.5807 -0.1172
 1158SOL     OW 3287   0.004   1.890   0.814 -0.0579  0.5308 -0.4259
 1158SOL    HW1 3288   0.084   1.909   0.765  0.1563  2.0731  0.4529
 1158SOL    HW2 3289  -0.044   1.828   0.759  2.4192 -1.7273 -0.3074
 1159SOL     OW 3290   1.995   0.105   3.102 -0.1829  0.1132  0.7794
 1159SOL    HW1 3291   2.018   0.021   3.140 -1.9263 -0.9729 -0.4125
 1159SOL    HW2 3292   1.987   0.164   3.177  3.2691 -0.1005  1.4839
 1160SOL     OW 3293   1.823   0.288   2.016  0.4861  0.1677 -0.3378
 1160SOL    HW1 3294   1.833   0.223   1.946 -0.7108  0.4726 -0.8175
 1160SOL    HW2 3295   1.837   0.372   1.974 -2.7643  0.5614 -0.8735
 1161SOL     OW 3296   0.104   2.157   0.130  0.0705 -0.5411  0.5738
 1161SOL    HW1 3297   0.016   2.119   0.131 -1.0249  1.8285  1.2443
 1161SOL    HW2 3298   0.153   2.106   0.194 -1.6844 -0.1087  2.3616
 1162SOL     OW 3299   1.010   3.255   0.371 -0.5352  0.2517  0.2062
 1162SOL    HW1 3300   1.079   3.196   0.343 -0.0324  0.2815  1.3237
 1162SOL    HW2 3301   0.929   3.216   0.337  0.0316  0.3525 -1.3310
 1163SOL     OW 3302   2.270   1.154   1.239 -0.3630  0.3776 -1.0975
 1163SOL    HW1 3303   2.357   1.122   1.263 -1.7748 -1.6528  1.8506
 1163SOL    HW2 3304   2.256   1.120   1.151  0.8674 -1.4896 -0.6291
 1164SOL     OW 3305   3.294   2.116   2.885 -0.5108 -0.4009 -0.4843
 1164SOL    HW1 3306   3.248   2.152   2.809 -0.0997  0.2176 -0.4494
 1164SOL    HW2 3307   3.356   2.053   2.849 -1.5456 -1.4332 -0.5116
 1165SOL     OW 3308   2.821   2.535   2.572  0.3415  0.0923 -0.2990
 1165SOL    HW1 3309   2.849   2.513   2.661  0.5577  0.9843 -0.1368
 1165SOL    HW2 3310   2.726   2.522   2.574  0.0258  2.1715  0.7179
 1166SOL     OW 3311   0.214   2.788   1.827  1.1659 -0.2808  0.6235
 1166SOL    HW1 3312   0.127   2.763   1.795  1.7329 -0.4330 -0.9019
 1166SOL    HW2 3313   0.203   2.798   1.921 -1.0743  1.9447  0.2440
 1167SOL     OW 3314   1.895   0.361   1.536  0.1984  0.3910  0.7113
 1167SOL    HW1 3315   1.965   0.416   1.572  0.0171 -0.0650  1.8146
 1167SOL    HW2 3316   1.899   0.280   1.588 -1.1635  0.3723  0.8335
 1168SOL     OW 3317   1.206   1.425   2.094 -0.5699 -0.8484  0.0953
 1168SOL    HW1 3318   1.161   1.458   2.172  1.6336  0.5716  0.8588
 1168SOL    HW2 3319   1.286   1.386   2.128  1.0718  0.9516 -1.4967
 1169SOL     OW 3320   0.530   2.786   0.042  0.8544 -0.0207  0.1625
 1169SOL    HW1 3321   0.449   2.785   0.092  0.2580 -0.6543 -0.7915
 1169SOL    HW2 3322   0.597   2.814   0.105  0.2258 -1.2778  1.4515
 1170SOL     OW 3323   0.621   2.833   1.771  0.7518 -0.0112 -0.1902
 1170SOL    HW1 3324   0.575   2.753   1.747  0.1933  0.0075  0.7533
 1170SOL    HW2 3325   0.591   2.898   1.707  0.2578 -0.2512 -0.2076
 1171SOL     OW 3326   3.004   1.525   2.760  0.1968  0.4369  0.0534
 1171SOL    HW1 3327   3.064   1.477   2.817 -2.0631 -2.9939 -0.1961
 1171SOL    HW2 3328   3.007   1.478   2.677 -2.1428  0.6588 -0.2253
 1172SOL     OW 3329   2.545   1.349   1.185  0.0145  0.1514 -0.3532
 1172SOL    HW1 3330   2.609   1.314   1.248 -0.2352  0.8361  0.3066
 1172SOL    HW2 3331   2.535   1.280   1.120  0.7516 -0.3311  0.0239
 1173SOL     OW 3332   1.254   0.147   2.744  0.2182  0.0050  0.1185
 1173SOL    HW1 3333   1.220   0.131   2.656 -0.1678 -1.2187  0.4643
 1173SOL    HW2 3334   1.341   0.184   2.730 -0.6757  1.9268 -0.7738
 1174SOL     OW 3335   2.897   0.890   2.147  0.5368  0.0792 -0.0795
 1174SOL    HW1 3336   2.843   0.888   2.226  0.9665  0.1426  0.2239
 1174SOL    HW2 3337   2.849   0.838   2.083  0.1805  0.0315  0.2244
 1175SOL     OW 3338   1.925   0.975   2.748  0.2969 -0.0915  0.2303
 1175SOL    HW1 3339   1.990   0.929   2.800  1.0974  0.7194 -0.0300
 1175SOL    HW2 3340   1.931   1.066   2.777  0.1563  0.2184 -0.6723
 1176SOL     OW 3341   1.796   0.958   1.742  0.5019  0.5134  0.2707
 1176SOL    HW1 3342   1.714   0.909   1.752 -0.4651  1.9562 -0.1882
 1176SOL    HW2 3343   1.849   0.905   1.682 -0.8341  0.3626 -0.8404
 1177SOL     OW 3344   2.206   1.415   1.659  0.3233  0.6475 -0.1422
 1177SOL    HW1 3345   2.301   1.405   1.660  0.1962 -1.6377 -1.8721
 1177SOL    HW2 3346   2.182   1.403   1.567 -1.5024  3.2010 -0.0943
 1178SOL     OW 3347   1.122   3.383   0.000  0.4583 -1.0001 -0.2464
 1178SOL    HW1 3348   1.033   3.369  -0.032  1.0013 -0.4936 -2.1079
 1178SOL    HW2 3349   1.178   3.340  -0.064  1.6387  0.2767 -0.1201
 1179SOL     OW 3350   1.469   0.827   2.979  0.1021  0.4297  0.3448
 1179SOL    HW1 3351   1.504   0.911   2.950  1.1130  0.1531  0.7355
 1179SOL    HW2 3352   1.519   0.805   3.058  0.7869 -1.1633 -0.4762
 1180SOL     OW 3353   1.492   3.281   2.024  0.0325  0.3244 -0.1453
 1180SOL    HW1 3354   1.560   3.220   2.052  0.0275  0.2078 -0.3948
 1180SOL    HW2 3355   1.468   3.254   1.936  1.0677  1.5780 -0.8361
 1181SOL     OW 3356   2.433   0.059   0.125 -0.0059 -0.1400 -0.2719
 1181SOL    HW1 3357   2.490   0.096   0.192  2.1242 -2.4966 -0.6659
 1181SOL    HW2 3358   2.487   0.054   0.047 -1.2578 -0.9886 -1.1202
 1182SOL     OW 3359   2.804   0.087   1.226 -0.2634 -0.0729 -0.8374
 1182SOL    HW1 3360   2.788   0.047   1.140 -1.6056 -1.0500 -0.1791
 1182SOL    HW2 3361   2.892   0.057   1.250 -0.6310 -1.4035 -1.0519
 1183SOL     OW 3362   0.390   1.281   1.097  0.2089 -0.0319  0.2033
 1183SOL    HW1 3363   0.480   1.312   1.106  1.0817 -1.5199 -2.3519
 1183SOL    HW2 3364   0.385   1.204   1.153  0.0386  0.8816  1.4789
 1184SOL     OW 3365   0.759   2.953   3.187 -0.2044  0.0691  0.0814
 1184SOL    HW1 3366   0.825   2.956   3.118  0.3499  0.1541  0.6097
 1184SOL    HW2 3367   0.682   2.995   3.149  0.3285  0.7648 -0.2353
 1185SOL     OW 3368   2.650   2.571   1.045 -0.0001  0.4157  0.2491
 1185SOL    HW1 3369   2.586   2.611   1.104  1.0855  1.7604  0.5641
 1185SOL    HW2 3370   2.626   2.604   0.959 -1.5368 -1.4852 -0.1261
 1186SOL     OW 3371   2.293   1.565   2.345 -0.1718 -0.4294 -0.3447
 1186SOL    HW1 3372   2.344   1.585   2.424  0.4609  1.5343 -1.1914
 1186SOL    HW2 3373   2.347   1.597   2.273 -0.8821 -1.8917 -1.5841
 1187SOL     OW 3374   3.319   0.350   0.029 -0.4649 -0.1805 -0.5667
 1187SOL    HW1 3375   3.408   0.315   0.033 -0.7247 -0.9637 -1.3585
 1187SOL    HW2 3376   3.309   0.380  -0.061 -0.5726  1.1179 -0.1478
 1188SOL     OW 3377   2.872   1.184   0.043  0.3107 -0.8624 -0.5621
 1188SOL    HW1 3378   2.818   1.105   0.036 -3.9171  1.7695 -1.0293
 1188SOL    HW2 3379   2.890   1.193   0.136 -3.5918  0.0784  0.2660
 1189SOL     OW 3380   3.140   2.263   3.082  0.3342  0.2838 -0.3040
 1189SOL    HW1 3381   3.179   2.308   3.007  2.8449 -1.3642 -0.1064
 1189SOL    HW2 3382   3.123   2.174   3.051 -2.2321  0.5969  0.0238
 1190SOL     OW 3383   2.761   2.189   1.917  0.5174  0.5689  0.8736
 1190SOL    HW1 3384   2.820   2.181   1.993 -0.3544 -0.5888  1.4483
 1190SOL    HW2 3385   2.726   2.101   1.904  0.4296  0.8131 -0.7204
 1191SOL     OW 3386   2.155   2.260   2.834  0.5073 -0.1761  0.2063
 1191SOL    HW1 3387   2.108   2.277   2.753 -0.7346  0.7600  1.0724
 1191SOL    HW2 3388   2.106   2.189   2.876  0.7374 -0.2032  0.4359
 1192SOL     OW 3389   1.697   0.234   2.906 -0.2136  0.0907  0.0104
 1192SOL    HW1 3390   1.703   0.329   2.915 -0.7578  0.0223  1.2905
 1192SOL    HW2 3391   1.773   0.211   2.852  1.2372  1.0294  1.5219
 1193SOL     OW 3392   2.655   3.269   1.094  0.5849  0.6121 -0.4918
 1193SOL    HW1 3393   2.625   3.196   1.040  0.0887  0.7012 -0.3357
 1193SOL    HW2 3394   2.576   3.303   1.136  0.9562  0.5426  0.2972
 1194SOL     OW 3395   0.251   2.082   2.784  0.9790  0.0804 -0.0679
 1194SOL    HW1 3396   0.242   2.058   2.876  0.2396  0.1315 -0.1200
 1194SOL    HW2 3397   0.196   2.019   2.737 -0.2205  1.2475 -0.2842
 1195SOL     OW 3398   1.071   2.127   2.286 -0.1644 -0.0065 -0.5829
 1195SOL    HW1 3399   1.047   2.151   2.196  0.9546 -0.0771 -0.9192
 1195SOL    HW2 3400   1.167   2.122   2.285 -0.1355 -0.0855  0.5996
 1196SOL     OW 3401   0.202   2.156   1.813  0.0246  0.1404  0.5792
 1196SOL    HW1 3402   0.132   2.145   1.749  1.3400  1.7076 -1.2335
 1196SOL    HW2 3403   0.189   2.244   1.849  0.4608  0.0419  0.9929
 1197SOL     OW 3404   1.081   1.572   3.321  0.0306  0.1069  0.0192
 1197SOL    HW1 3405   0.998   1.612   3.296 -0.2603 -0.3919  0.1849
 1197SOL    HW2 3406   1.068   1.543   3.412 -0.5502 -2.3923 -0.7846
 1198SOL     OW 3407   2.834   2.153   0.053 -0.4149  0.2465 -0.3125
 1198SOL    HW1 3408   2.791   2.238   0.042 -1.1762 -0.2885 -1.7310
 1198SOL    HW2 3409   2.883   2.161   0.135 -2.8312  1.0707  1.1503
 1199SOL     OW 3410   0.967   1.655   1.507 -0.1090 -0.2936 -0.5446
 1199SOL    HW1 3411   0.928   1.726   1.558  0.6826  0.9686 -1.6313
 1199SOL    HW2 3412   0.893   1.616   1.460 -0.5456 -0.1441  0.0043
 1200SOL     OW 3413   0.891   2.537   1.738 -0.3649 -0.2233  0.1901
 1200SOL    HW1 3414   0.831   2.496   1.675 -1.4130  0.6398  0.5807
 1200SOL    HW2 3415   0.879   2.631   1.724 -0.8220 -0.0072  1.8185
 1201SOL     OW 3416   1.538   0.494   0.179 -0.1457 -0.0271 -0.0550
 1201SOL    HW1 3417   1.588   0.519   0.257 -0.9440  0.0803  0.4360
 1201SOL    HW2 3418   1.584   0.417   0.146  0.4737  0.1941  0.2517
 1202SOL     OW 3419   2.680   0.504   0.367 -0.2649  0.5404 -1.0437
 1202SOL    HW1 3420   2.600   0.453   0.379 -0.4719  1.0573 -0.0535
 1202SOL    HW2 3421   2.733   0.453   0.306  0.8733 -2.4602  2.1189
 1203SOL     OW 3422   1.220   1.733   0.336 -0.0857 -0.0442 -0.5398
 1203SOL    HW1 3423   1.172   1.799   0.285 -0.6756  0.9726  1.2478
 1203SOL    HW2 3424   1.152   1.689   0.388  0.7085  0.3978  0.9193
 1204SOL     OW 3425   3.044   1.157   2.689  0.0223 -0.6944  0.4405
 1204SOL    HW1 3426   3.044   1.197   2.776  1.1710 -0.9613  0.5872
 1204SOL    HW2 3427   3.075   1.067   2.704  1.1440 -0.4671 -0.3372
 1205SOL     OW 3428   1.985   1.772   3.264 -0.3272  0.3697 -0.4398
 1205SOL    HW1 3429   2.008   1.767   3.357 -0.5884 -1.1967 -0.4420
 1205SOL    HW2 3430   1.952   1.861   3.253 -1.3984  0.2223  1.2390
 1206SOL     OW 3431   2.948   2.335   2.221 -0.1519  0.3658  0.5135
 1206SOL    HW1 3432   2.862   2.316   2.185 -0.1668  1.3489  0.0158
 1206SOL    HW2 3433   3.005   2.267   2.184 -0.6374 -0.0898  0.5920
 1207SOL     OW 3434   1.859   2.112   1.097  0.6233  0.3676  0.3298
 1207SOL    HW1 3435   1.847   2.018   1.089  1.5809  0.1785  0.8993
 1207SOL    HW2 3436   1.927   2.122   1.164 -0.3900  1.5067  1.2266
 1208SOL     OW 3437   2.619   0.631   0.861 -0.5206  0.7475 -0.3511
 1208SOL    HW1 3438   2.697   0.578   0.844  1.4138  2.4771  2.2812
 1208SOL    HW2 3439   2.549   0.588   0.812  1.2782 -3.0750  0.0671
 1209SOL     OW 3440   1.936   2.499   1.951 -0.2133  0.1887  0.0260
 1209SOL    HW1 3441   1.853   2.500   1.998 -0.9215 -2.6644 -0.9423
 1209SOL    HW2 3442   2.002   2.487   2.018 -0.8676 -0.3259  0.5907
 1210SOL     OW 3443   2.824   3.111   2.571 -0.5486  0.2225  0.2742
 1210SOL    HW1 3444   2.734   3.106   2.540  0.0960  0.0646 -1.7271
 1210SOL    HW2 3445   2.863   3.028   2.545  0.2039  0.3446  0.9954
 1211SOL     OW 3446   2.911   0.923   1.456  0.0182  0.4467 -0.2543
 1211SOL    HW1 3447   2.991   0.949   1.410  1.5776 -0.1356  1.9667
 1211SOL    HW2 3448   2.866   1.006   1.472  1.0047  0.9709 -0.1015
 1212SOL     OW 3449   2.505   1.828   2.920 -0.2584 -0.1202 -0.3144
 1212SOL    HW1 3450   2.598   1.825   2.942 -0.1577 -0.2121 -0.7421
 1212SOL    HW2 3451   2.462   1.857   3.001 -0.1642 -2.7685  0.7882
 1213SOL     OW 3452   0.907   1.105   0.018  0.2404 -0.2483  0.4377
 1213SOL    HW1 3453   0.993   1.131   0.049 -0.2800  0.8622  1.0122
 1213SOL    HW2 3454   0.889   1.022   0.063  0.0462  0.6800  2.1599
 1214SOL     OW 3455   3.272   3.141   2.925 -0.5591 -0.2446 -0.0299
 1214SOL    HW1 3456   3.259   3.059   2.973  0.2839  0.9050  2.3237
 1214SOL    HW2 3457   3.366   3.142   2.904  0.1856  1.4728  2.8466
 1215SOL     OW 3458   0.830   0.810   2.983  0.3092 -0.7172  0.2770
 1215SOL    HW1 3459   0.790   0.836   2.900  0.3119 -1.5441  0.0053
 1215SOL    HW2 3460   0.915   0.854   2.984  0.0644 -0.2359  0.1119
 1216SOL     OW 3461   0.699   2.605   0.425 -0.2503 -0.7066 -0.3639
 1216SOL    HW1 3462   0.690   2.580   0.517  1.0931  0.7742  0.2182
 1216SOL    HW2 3463   0.745   2.531   0.385 -0.2055 -1.0530  0.3099
 1217SOL     OW 3464   1.773   1.956   1.954  0.1035 -0.6750 -0.4919
 1217SOL    HW1 3465   1.738   2.012   1.884  0.5649  0.2451 -0.0061
 1217SOL    HW2 3466   1.830   1.895   1.909  0.4779 -0.0250 -0.9193
 1218SOL     OW 3467   2.651   2.790   2.784 -0.0575 -0.5311 -0.6590
 1218SOL    HW1 3468   2.727   2.822   2.832 -1.1227  0.5685  0.3640
 1218SOL    HW2 3469   2.644   2.697   2.807  1.0146 -0.6689 -0.8549
 1219SOL     OW 3470   2.306   0.130   2.761  0.3081 -0.0582 -0.1419
 1219SOL    HW1 3471   2.291   0.223   2.745 -0.4188 -0.0927  0.2993
 1219SOL    HW2 3472   2.345   0.126   2.848 -1.2283 -0.2646  0.5694
 1220SOL     OW 3473   0.731   2.733   1.122  0.2437  0.0168 -0.2277
 1220SOL    HW1 3474   0.683   2.786   1.186 -0.5112  0.3266 -1.0345
 1220SOL    HW2 3475   0.822   2.735   1.153  0.2677  1.8725 -0.2772
 1221SOL     OW 3476   2.892   0.267   2.359 -0.1701 -0.3496  0.3643
 1221SOL    HW1 3477   2.874   0.176   2.383 -1.8330  0.1198  1.0695
 1221SOL    HW2 3478   2.917   0.263   2.267 -0.6495 -1.4889  0.2642
 1222SOL     OW 3479   1.226   2.664   0.439 -0.3752  0.6562 -0.1187
 1222SOL    HW1 3480   1.171   2.628   0.508  0.0774  1.3477  0.6095
 1222SOL    HW2 3481   1.303   2.608   0.437  0.0186  1.1601  0.5537
 1223SOL     OW 3482   1.634   0.533   1.737  0.4081  0.2157 -0.3589
 1223SOL    HW1 3483   1.589   0.581   1.667 -2.2812  0.2820  1.2910
 1223SOL    HW2 3484   1.566   0.479   1.776  1.6032  0.7401  2.6790
 1224SOL     OW 3485   1.486   1.485   0.162 -0.1199  0.5386  0.6721
 1224SOL    HW1 3486   1.540   1.520   0.232  0.9090 -0.1768  0.2536
 1224SOL    HW2 3487   1.547   1.439   0.104 -1.0986  0.1589 -0.0949
 1225SOL     OW 3488   1.884   0.486   1.844 -0.0271 -0.0892 -0.4407
 1225SOL    HW1 3489   1.792   0.491   1.819 -0.3728  0.2521  0.8034
 1225SOL    HW2 3490   1.932   0.499   1.762 -1.0691  1.5205 -0.8606
 1226SOL     OW 3491   1.910   2.409   2.720  0.2927  0.1970  0.2978
 1226SOL    HW1 3492   1.997   2.449   2.727  0.9870 -1.2675  0.3540
 1226SOL    HW2 3493   1.867   2.430   2.803  1.2294 -0.5129  0.9767
 1227SOL     OW 3494   2.570   1.005   0.298 -0.0641  0.6439 -0.3127
 1227SOL    HW1 3495   2.595   0.951   0.223  0.1399 -0.1668  0.3269
 1227SOL    HW2 3496   2.479   1.029   0.281 -0.8587 -1.6673  0.3920
 1228SOL     OW 3497   1.543   1.690   2.018  0.8023  0.3572  0.1236
 1228SOL    HW1 3498   1.520   1.651   1.934  0.3761  0.3483  0.2441
 1228SOL    HW2 3499   1.599   1.763   1.996  0.5371  0.4687 -0.1811
 1229SOL     OW 3500   2.791   0.355   1.895 -0.5586 -0.0785  0.0742
 1229SOL    HW1 3501   2.878   0.352   1.855 -0.3549 -0.5865  0.5493
 1229SOL    HW2 3502   2.733   0.316   1.829 -0.1146 -1.5950  0.5436
 1230SOL     OW 3503   3.115   2.444   1.243  0.2474  0.6569 -0.0166
 1230SOL    HW1 3504   3.171   2.499   1.188  0.6541 -0.8465 -1.1421
 1230SOL    HW2 3505   3.032   2.439   1.195  0.6309 -0.7323 -0.5674
 1231SOL     OW 3506   2.481   1.302   1.598 -0.2144 -0.2441  0.6579
 1231SOL    HW1 3507   2.415   1.232   1.602 -0.4531 -0.1395 -0.8138
 1231SOL    HW2 3508   2.544   1.270   1.534 -0.0327  0.6516  0.3852
 1232SOL     OW 3509   3.268   0.748   0.933  0.2916 -0.4985 -0.1355
 1232SOL    HW1 3510   3.254   0.741   0.839  0.0300 -0.7241 -0.0793
 1232SOL    HW2 3511   3.363   0.756   0.942  0.3344 -0.6965 -0.4037
 1233SOL     OW 3512   1.910   0.188   2.753 -0.0181  0.1353  0.5172
 1233SOL    HW1 3513   2.000   0.218   2.754 -0.1720  0.5945  0.9844
 1233SOL    HW2 3514   1.915   0.098   2.719  0.5323  0.3911 -0.0929
 1234SOL     OW 3515   3.160   1.859   2.858 -0.2808  0.5236 -0.6930
 1234SOL    HW1 3516   3.248   1.853   2.895 -0.8169  1.4699  0.8421
 1234SOL    HW2 3517   3.153   1.949   2.827 -0.5649  0.3238 -1.2239
 1235SOL     OW 3518   1.640   2.105   1.742  0.0412  0.3642 -0.3002
 1235SOL    HW1 3519   1.603   2.187   1.709 -0.2410  0.3369 -0.0603
 1235SOL    HW2 3520   1.584   2.037   1.704  0.8324  0.2158 -1.2517
 1236SOL     OW 3521   3.062   1.377   2.531 -0.2434 -0.1533  0.2420
 1236SOL    HW1 3522   3.073   1.290   2.570  0.6851  0.4645  1.4067
 1236SOL    HW2 3523   3.117   1.376   2.452 -0.2714 -0.6267  0.2276
 1237SOL     OW 3524   1.832   2.996   3.078 -0.0950  0.9174 -0.5540
 1237SOL    HW1 3525   1.870   2.928   3.023 -0.4288  0.2158  0.0733
 1237SOL    HW2 3526   1.738   2.993   3.060 -0.9128 -2.2009  3.0082
 1238SOL     OW 3527   3.025   0.394   1.736 -0.3033  0.4711  0.0722
 1238SOL    HW1 3528   2.966   0.349   1.675 -0.3250  1.0967 -0.3690
 1238SOL    HW2 3529   3.099   0.334   1.745  0.4385  1.0316 -1.7929
 1239SOL     OW 3530   3.090   0.365   0.548 -0.2273  0.2224 -0.1378
 1239SOL    HW1 3531   3.068   0.457   0.558 -0.5243  0.2490 -0.9297
 1239SOL    HW2 3532   3.127   0.359   0.460  0.5403 -0.2745  0.2088
 1240SOL     OW 3533   0.327   0.492   0.141  0.6553 -0.2591  0.0071
 1240SOL    HW1 3534   0.343   0.449   0.225  0.7533 -2.3514 -1.0095
 1240SOL    HW2 3535   0.348   0.425   0.075  1.3542  1.5426 -1.7282
 1241SOL     OW 3536   0.920   1.171   2.780  0.2595  0.4627  0.2879
 1241SOL    HW1 3537   0.850   1.189   2.842  0.6934 -0.7919  1.1951
 1241SOL    HW2 3538   1.000   1.195   2.826  0.4965  0.9910 -0.3835
 1242SOL     OW 3539   1.176   1.136   1.877 -0.0639  0.0689 -0.2467
 1242SOL    HW1 3540   1.188   1.051   1.836 -3.3026 -1.3136  1.2536
 1242SOL    HW2 3541   1.211   1.199   1.814  0.0775 -2.2174 -2.6261
 1243SOL     OW 3542   1.182   3.070   3.099  0.6121  0.0551 -0.3648
 1243SOL    HW1 3543   1.220   3.158   3.105  1.8205 -0.4475 -0.3302
 1243SOL    HW2 3544   1.140   3.069   3.014  2.5333 -0.0372 -1.3774
 1244SOL     OW 3545   0.113   2.470   2.710 -0.0596 -0.1209 -0.2888
 1244SOL    HW1 3546   0.200   2.458   2.673 -0.2885 -0.3813 -0.7629
 1244SOL    HW2 3547   0.128   2.488   2.802  0.4210 -3.0701  0.3350
 1245SOL     OW 3548   1.219   2.279   0.027 -0.0361  0.2772 -0.5100
 1245SOL    HW1 3549   1.204   2.315   0.114  1.1550  2.7420 -1.2186
 1245SOL    HW2 3550   1.273   2.346  -0.017  0.8450 -1.6593 -2.5604
 1246SOL     OW 3551   1.422   2.465   3.311 -0.7077  0.1130 -0.3780
 1246SOL    HW1 3552   1.472   2.503   3.239 -0.4005 -0.2090 -0.3356
 1246SOL    HW2 3553   1.388   2.540   3.359  0.1532  0.3400 -0.1157
 1247SOL     OW 3554   2.666   0.986   2.656  0.4994 -0.0202  0.3351
 1247SOL    HW1 3555   2.707   1.068   2.626  1.5025 -0.3328  0.8083
 1247SOL    HW2 3556   2.733   0.919   2.641 -0.4149 -0.8122 -0.3086
 1248SOL     OW 3557   1.054   1.083   2.321  0.0191  0.3055  0.7005
 1248SOL    HW1 3558   1.018   1.155   2.372  2.1063  1.0689  1.1949
 1248SOL    HW2 3559   1.042   1.110   2.230  0.7187  1.2627  0.8794
 1249SOL     OW 3560   1.558   0.064   0.521 -0.4091 -0.5145  0.7311
 1249SOL    HW1 3561   1.559  -0.021   0.566 -1.0462 -1.4709 -0.9593
 1249SOL    HW2 3562   1.493   0.054   0.452 -0.1217  1.1891  0.1676
 1250SOL     OW 3563   0.326   0.860   0.355 -0.4022  0.0358 -0.5761
 1250SOL    HW1 3564   0.306   0.887   0.265  0.8743 -1.5199 -1.3780
 1250SOL    HW2 3565   0.411   0.900   0.373 -0.1409 -0.5563 -0.4787
 1251SOL     OW 3566   2.529   0.713   2.123 -0.2317  0.0260 -0.2736
 1251SOL    HW1 3567   2.433   0.717   2.125 -0.2543  1.6421  2.9680
 1251SOL    HW2 3568   2.550   0.621   2.136 -1.3704 -0.2398 -0.2489
 1252SOL     OW 3569   1.081   0.513   0.604  0.3768 -0.0283 -0.4937
 1252SOL    HW1 3570   1.095   0.599   0.565  0.8064  0.2033  0.1589
 1252SOL    HW2 3571   0.998   0.521   0.652  0.9660  0.3641  0.4828
 1253SOL     OW 3572   2.300   2.566   0.537  0.4504 -0.8941  0.5845
 1253SOL    HW1 3573   2.238   2.509   0.492 -0.4392 -0.1835  0.8736
 1253SOL    HW2 3574   2.345   2.509   0.599  2.1374 -2.0388 -1.5477
 1254SOL     OW 3575   1.487   0.495   3.134 -0.2492  0.0934 -0.0408
 1254SOL    HW1 3576   1.408   0.472   3.085 -1.2195  0.5767  1.2190
 1254SOL    HW2 3577   1.454   0.544   3.210  0.8136 -3.0465  2.7027
 1255SOL     OW 3578   1.502   2.832   1.294  0.6542 -0.3679  0.4840
 1255SOL    HW1 3579   1.549   2.776   1.233  2.6827 -0.0231  1.6653
 1255SOL    HW2 3580   1.489   2.914   1.247 -0.0662 -0.9419 -0.3448
 1256SOL     OW 3581   2.346   1.640   0.440  0.7292 -0.5661  0.0433
 1256SOL    HW1 3582   2.394   1.558   0.435 -0.0532 -0.9708 -2.2949
 1256SOL    HW2 3583   2.254   1.615   0.444  0.5319  0.2152  0.9067
 1257SOL     OW 3584   1.714   1.131   1.023  0.2169 -0.1415 -0.3260
 1257SOL    HW1 3585   1.784   1.192   0.998 -1.0147  1.5162  0.0823
 1257SOL    HW2 3586   1.719   1.127   1.119 -1.3666  1.5025 -0.1115
 1258SOL     OW 3587   1.110   0.396   1.935 -0.3809 -0.5179  0.4435
 1258SOL    HW1 3588   1.039   0.429   1.880  1.3766 -2.1857 -3.1791
 1258SOL    HW2 3589   1.077   0.313   1.969 -0.0742 -1.5711 -1.6880
 1259SOL     OW 3590   2.488   0.316   1.326 -0.2078 -0.7831  0.0944
 1259SOL    HW1 3591   2.562   0.376   1.334 -1.7262  1.1541  0.2744
 1259SOL    HW2 3592   2.423   0.364   1.275 -2.2855 -1.4199  1.9871
 1260SOL     OW 3593   2.904   2.565   0.819 -0.2716  0.6120 -0.1442
 1260SOL    HW1 3594   2.916   2.496   0.885  0.5499  2.7089  2.0469
 1260SOL    HW2 3595   2.810   2.576   0.812 -0.4673 -1.3471 -1.2903
 1261SOL     OW 3596   0.379   2.743   1.068 -0.7453 -0.0260 -0.2871
 1261SOL    HW1 3597   0.325   2.809   1.026  0.6683  1.6292  0.4091
 1261SOL    HW2 3598   0.372   2.666   1.011  0.4784  1.8384 -3.1788
 1262SOL     OW 3599   0.506   1.111   2.200 -0.2074  0.2162  0.0575
 1262SOL    HW1 3600   0.571   1.105   2.130  0.6437  0.7959  0.7808
 1262SOL    HW2 3601   0.465   1.196   2.187 -1.0543 -0.2727 -0.5773
 1263SOL     OW 3602   2.679   2.227   0.299  0.2600  0.3075  0.2773
 1263SOL    HW1 3603   2.667   2.264   0.211  0.3957  1.8876  0.8892
 1263SOL    HW2 3604   2.754   2.276   0.335  1.2396 -1.4253  0.6996
 1264SOL     OW 3605   2.415   1.695   3.148  0.0291 -0.4145 -0.3957
 1264SOL    HW1 3606   2.480   1.625   3.155 -0.0396 -0.3983  0.4527
 1264SOL    HW2 3607   2.331   1.649   3.145  0.0324 -0.4022 -0.7414
 1265SOL     OW 3608   0.412   2.685   0.405 -0.3598 -0.6542  0.3860
 1265SOL    HW1 3609   0.504   2.705   0.385 -0.2322 -1.7056 -0.1675
 1265SOL    HW2 3610   0.390   2.744   0.477 -0.3810  2.2911 -1.8227
 1266SOL     OW 3611   0.245   1.848   0.002  0.0148  0.1803 -0.4423
 1266SOL    HW1 3612   0.164   1.824   0.048  0.7386  0.1005  0.8394
 1266SOL    HW2 3613   0.275   1.765  -0.036 -1.5192  0.5559 -2.6904
 1267SOL     OW 3614   1.562   2.091   2.458  0.9267 -0.1304  0.3253
 1267SOL    HW1 3615   1.493   2.157   2.458  1.0493  0.0010  0.8052
 1267SOL    HW2 3616   1.599   2.095   2.546 -0.2230 -2.0523  0.9642
 1268SOL     OW 3617   0.927   1.405   1.722  0.2806 -0.0975 -0.6304
 1268SOL    HW1 3618   0.904   1.454   1.643 -1.1623  0.6897  0.2238
 1268SOL    HW2 3619   0.844   1.371   1.754  0.8859 -0.6760  0.3771
 1269SOL     OW 3620   0.378   2.792   2.516  0.5257  0.1080  0.2925
 1269SOL    HW1 3621   0.329   2.711   2.504 -0.0204  0.8158 -4.9554
 1269SOL    HW2 3622   0.470   2.765   2.515  0.3344 -0.5529 -0.6603
 1270SOL     OW 3623   2.543   1.160   0.965  0.0845  0.2588 -0.3557
 1270SOL    HW1 3624   2.561   1.070   0.939 -0.9239 -0.2564  0.6310
 1270SOL    HW2 3625   2.625   1.207   0.948  0.5117 -0.7606 -1.2028
 1271SOL     OW 3626   0.463   3.025   1.646 -0.0351 -0.0834  0.3159
 1271SOL    HW1 3627   0.440   3.116   1.626 -0.9486 -0.3141  0.2583
 1271SOL    HW2 3628   0.458   3.019   1.741 -0.9146 -0.3107  0.2562
 1272SOL     OW 3629   0.234   1.967   1.044  0.2909 -0.4018  0.1127
 1272SOL    HW1 3630   0.309   1.926   1.000 -0.0830 -1.2384  0.2281
 1272SOL    HW2 3631   0.272   2.027   1.108  0.8535 -0.4979 -0.1326
 1273SOL     OW 3632   0.489   1.421   0.824 -0.4730 -0.5383 -0.1739
 1273SOL    HW1 3633   0.499   1.486   0.894  0.0220  0.5402 -1.2083
 1273SOL    HW2 3634   0.566   1.434   0.769 -0.7398 -1.5334 -0.8018
 1274SOL     OW 3635   1.168   0.891   0.812  0.0571 -0.5283 -0.1470
 1274SOL    HW1 3636   1.214   0.810   0.836 -2.4320 -2.0767 -0.2248
 1274SOL    HW2 3637   1.179   0.948   0.888  1.2403 -1.2091  0.2158
 1275SOL     OW 3638   2.357   3.379   3.037 -0.1983 -0.0681  0.1834
 1275SOL    HW1 3639   2.347   3.289   3.007  2.4182 -0.0106 -1.2042
 1275SOL    HW2 3640   2.372   3.371   3.131  0.4702 -1.1711  0.0072
 1276SOL     OW 3641   1.706   0.485   2.998  0.3604  0.0109  1.1455
 1276SOL    HW1 3642   1.625   0.507   3.045 -0.2848  1.3769 -0.4966
 1276SOL    HW2 3643   1.776   0.500   3.062 -0.5290  1.0651  1.9107
 1277SOL     OW 3644   3.141   0.694   2.668  0.4162 -0.9725 -0.6765
 1277SOL    HW1 3645   3.157   0.674   2.760  0.7442  1.0190 -0.2627
 1277SOL    HW2 3646   3.228   0.707   2.631  0.2122  0.3509 -0.7355
 1278SOL     OW 3647   1.767   0.048   2.450  0.2896 -0.0302 -0.3022
 1278SOL    HW1 3648   1.816   0.101   2.387  1.9255  2.6102  2.8454
 1278SOL    HW2 3649   1.816  -0.033   2.457  1.3307  0.5340 -0.8448
 1279SOL     OW 3650   0.296   3.290   0.273 -0.3575  0.2868  0.0157
 1279SOL    HW1 3651   0.275   3.203   0.308 -0.9873  0.9041  1.2468
 1279SOL    HW2 3652   0.389   3.301   0.289 -0.0202 -0.6052 -1.2024
 1280SOL     OW 3653   1.262   0.408   3.007  0.5962 -0.2585 -0.2056
 1280SOL    HW1 3654   1.175   0.377   3.031  1.0202 -0.6564  0.8686
 1280SOL    HW2 3655   1.249   0.451   2.922 -0.2966 -1.9654 -0.9904
 1281SOL     OW 3656   1.694   0.417   2.326 -0.3485 -0.6001  0.1656
 1281SOL    HW1 3657   1.744   0.395   2.405 -0.3850 -0.6789  0.1673
 1281SOL    HW2 3658   1.750   0.478   2.278 -0.8020  0.3372  0.8043
 1282SOL     OW 3659   2.904   1.960   0.678  0.3773 -0.2551  0.2069
 1282SOL    HW1 3660   2.829   1.902   0.691 -0.4718  0.0194 -2.6752
 1282SOL    HW2 3661   2.868   2.048   0.686  0.1158 -0.1053 -2.0112
 1283SOL     OW 3662   1.681   1.081   1.340 -0.0941  0.3834 -0.3047
 1283SOL    HW1 3663   1.611   1.114   1.396  0.2244  0.6620 -0.0669
 1283SOL    HW2 3664   1.753   1.143   1.353  0.7273 -0.7171  0.6082
 1284SOL     OW 3665   2.575   1.680   0.263 -0.0788 -0.2220  0.1556
 1284SOL    HW1 3666   2.508   1.684   0.331 -0.9117 -0.2782 -0.6362
 1284SOL    HW2 3667   2.598   1.771   0.246  0.4533 -0.2295  0.8122
 1285SOL     OW 3668   3.232   2.425   2.766  0.2500  0.0241 -0.7620
 1285SOL    HW1 3669   3.323   2.425   2.795  0.3335  1.5331 -0.9703
 1285SOL    HW2 3670   3.234   2.379   2.682  0.9306  0.6373 -1.0892
 1286SOL     OW 3671   1.019   1.776   2.466  0.4829 -0.1667  0.8816
 1286SOL    HW1 3672   0.927   1.801   2.462  0.7356  0.6552 -1.0516
 1286SOL    HW2 3673   1.047   1.801   2.554 -0.9852  0.1499  1.2844
 1287SOL     OW 3674   3.192   2.701   2.732  0.5307 -0.4179  0.4036
 1287SOL    HW1 3675   3.185   2.721   2.639  1.7461  1.7794  0.7182
 1287SOL    HW2 3676   3.222   2.610   2.735  0.5005 -0.5162 -1.3431
 1288SOL     OW 3677   0.926   3.350   1.429  0.3243  0.1403  0.1334
 1288SOL    HW1 3678   0.888   3.277   1.476  0.4628 -0.8207 -1.1864
 1288SOL    HW2 3679   0.906   3.333   1.337  3.2288 -0.0269 -0.5711
 1289SOL     OW 3680   1.289   1.782   2.030  0.3028 -0.1925  0.2936
 1289SOL    HW1 3681   1.353   1.712   2.015 -0.9887 -1.1277 -1.1103
 1289SOL    HW2 3682   1.266   1.774   2.122 -0.8530 -2.5699 -0.1434
 1290SOL     OW 3683   1.059   0.491   2.273  0.7938  0.1527  0.1795
 1290SOL    HW1 3684   0.978   0.482   2.222  1.5742 -0.1431 -1.0626
 1290SOL    HW2 3685   1.061   0.583   2.300 -0.3267 -0.0208  0.8869
 1291SOL     OW 3686   0.428   0.570   2.978 -0.8179  0.5522 -0.4547
 1291SOL    HW1 3687   0.493   0.570   3.048  0.9594 -0.2452 -2.0291
 1291SOL    HW2 3688   0.364   0.503   3.005  0.8424 -1.0998 -0.4059
 1292SOL     OW 3689   2.630   2.660   2.251 -0.2458 -0.1259 -0.4096
 1292SOL    HW1 3690   2.613   2.699   2.337  0.6013 -0.6525  0.0066
 1292SOL    HW2 3691   2.721   2.629   2.256 -1.0672 -2.7617 -0.4927
 1293SOL     OW 3692   0.376   3.016   1.901 -0.2012  0.1588 -0.1580
 1293SOL    HW1 3693   0.348   3.107   1.909 -0.8435 -0.0195 -0.3487
 1293SOL    HW2 3694   0.295   2.966   1.890  0.0976 -0.5194  0.6010
 1294SOL     OW 3695   0.653   0.390   1.442 -0.1704 -0.2958  0.2235
 1294SOL    HW1 3696   0.646   0.362   1.351 -0.1297  1.2228 -0.2638
 1294SOL    HW2 3697   0.573   0.440   1.458 -1.4598 -2.6280  1.8305
 1295SOL     OW 3698   1.815   1.807   1.567 -0.2165  0.0536 -0.3625
 1295SOL    HW1 3699   1.779   1.743   1.505 -0.0871  0.0331 -0.4153
 1295SOL    HW2 3700   1.804   1.891   1.524  0.1100  0.0142 -0.5231
 1296SOL     OW 3701   1.331   0.814   1.982 -0.2127 -0.2885 -0.0065
 1296SOL    HW1 3702   1.290   0.891   2.022 -1.0475 -0.5308 -0.3654
 1296SOL    HW2 3703   1.257   0.764   1.947  0.3132 -1.3107  0.3246
 1297SOL     OW 3704   0.324   1.910   1.754 -0.1786 -0.0124 -0.4333
 1297SOL    HW1 3705   0.323   2.003   1.774 -1.8761 -0.0492 -0.1784
 1297SOL    HW2 3706   0.310   1.906   1.660 -0.2594 -0.0200 -0.4206
 1298SOL     OW 3707   1.107   0.079   2.956 -0.2511 -0.0508 -0.5228
 1298SOL    HW1 3708   1.159   0.116   2.885 -0.3857  0.1327 -0.5269
 1298SOL    HW2 3709   1.073   0.155   3.004  0.4483 -0.1713  0.1878
 1299SOL     OW 3710   3.048   1.306   1.375  0.0638 -0.0167 -0.7582
 1299SOL    HW1 3711   2.954   1.292   1.381 -0.0478  1.3449  1.4925
 1299SOL    HW2 3712   3.085   1.218   1.365 -1.3795 -0.6410 -0.7887
 1300SOL     OW 3713   1.402   1.604   2.643  0.1008 -0.7398 -0.5222
 1300SOL    HW1 3714   1.421   1.536   2.578  3.7171  0.2178 -0.7135
 1300SOL    HW2 3715   1.390   1.556   2.725  0.3574 -1.7197 -1.0392
 1301SOL     OW 3716   0.833   1.336   1.061  0.2602  0.2653 -0.0453
 1301SOL    HW1 3717   0.863   1.262   1.114  1.5178  1.2828  0.7164
 1301SOL    HW2 3718   0.769   1.380   1.117 -0.8316 -0.4754 -0.6782
 1302SOL     OW 3719   0.436   0.474   1.688  0.0254  0.2989 -0.1542
 1302SOL    HW1 3720   0.484   0.441   1.763  1.7989  1.3712 -0.7741
 1302SOL    HW2 3721   0.399   0.396   1.647  1.2564 -0.5713  0.3449
 1303SOL     OW 3722   1.169   2.991   3.366 -0.1348 -0.0182  0.4115
 1303SOL    HW1 3723   1.175   3.006   3.271  0.2111  1.7040  0.6691
 1303SOL    HW2 3724   1.090   2.939   3.377 -0.3045 -0.0585 -0.8018
 1304SOL     OW 3725   0.952   2.884   2.144  0.2989  0.4391  0.4937
 1304SOL    HW1 3726   0.882   2.917   2.088  2.0520  1.7583 -1.0585
 1304SOL    HW2 3727   0.970   2.956   2.205 -0.4484 -0.3438  1.6777
 1305SOL     OW 3728   1.135   2.477   2.217  0.0698  0.2815  0.4342
 1305SOL    HW1 3729   1.112   2.396   2.173 -0.5443 -0.2743  1.7293
 1305SOL    HW2 3730   1.091   2.546   2.167  0.8860 -0.1274 -0.8815
 1306SOL     OW 3731   0.641   1.176   2.912  0.7057 -0.7679  0.2789
 1306SOL    HW1 3732   0.622   1.119   2.986 -2.1211  0.2130  0.4449
 1306SOL    HW2 3733   0.621   1.264   2.944  2.2673  0.0370 -0.8153
 1307SOL     OW 3734   1.171   1.107   0.064  0.1031  0.4296 -0.7572
 1307SOL    HW1 3735   1.221   1.157   0.000  1.4595  1.3730  0.9736
 1307SOL    HW2 3736   1.234   1.046   0.103 -1.6794 -3.6039 -3.5082
 1308SOL     OW 3737   2.131   0.770   0.689 -0.2007 -0.5259 -0.0011
 1308SOL    HW1 3738   2.042   0.781   0.723 -0.1889 -2.0132  0.5897
 1308SOL    HW2 3739   2.121   0.713   0.613  0.1213  0.3424 -0.7086
 1309SOL     OW 3740   2.156   1.307   2.074  0.0606 -0.1900 -0.2623
 1309SOL    HW1 3741   2.122   1.249   2.006  0.7718 -1.4082  0.3925
 1309SOL    HW2 3742   2.229   1.352   2.033  0.7327 -1.2042 -0.2164
 1310SOL     OW 3743   0.709   1.748   0.427 -0.0857  0.2944  0.4490
 1310SOL    HW1 3744   0.661   1.681   0.378  1.4855 -0.6019  0.0533
 1310SOL    HW2 3745   0.676   1.831   0.392  0.3843 -0.3040 -1.5988
 1311SOL     OW 3746   1.529   0.260   2.675 -0.6998  0.0937  0.0369
 1311SOL    HW1 3747   1.558   0.335   2.624  1.0474 -0.2199  0.5051
 1311SOL    HW2 3748   1.574   0.268   2.758 -0.8947 -1.1807  0.2929
 1312SOL     OW 3749   2.283   2.202   0.356  0.3178 -0.0027  0.2664
 1312SOL    HW1 3750   2.232   2.245   0.425  0.5707  1.5923 -0.5052
 1312SOL    HW2 3751   2.332   2.134   0.403 -0.7135 -0.0205  1.3914
 1313SOL     OW 3752   3.136   2.172   0.368  0.4342 -0.0818  0.2957
 1313SOL    HW1 3753   3.174   2.114   0.434  1.5892  0.2363 -0.0477
 1313SOL    HW2 3754   3.130   2.117   0.290 -0.5404 -0.3426  0.5494
 1314SOL     OW 3755   3.314   1.987   1.187 -0.3196  0.5741  0.1534
 1314SOL    HW1 3756   3.223   2.010   1.204 -0.7860 -1.5883  0.9338
 1314SOL    HW2 3757   3.365   2.060   1.221 -1.6873  0.8637  1.6764
 1315SOL     OW 3758   0.326   2.621   0.791 -0.2237  0.3502 -0.6327
 1315SOL    HW1 3759   0.416   2.620   0.824 -0.1442  1.7870 -0.7601
 1315SOL    HW2 3760   0.307   2.713   0.775 -1.0753 -0.0995 -2.4308
 1316SOL     OW 3761   0.854   0.749   2.580 -0.3794 -0.7440 -0.0466
 1316SOL    HW1 3762   0.798   0.740   2.502  0.5510 -0.9689 -0.7003
 1316SOL    HW2 3763   0.822   0.829   2.622 -0.0677  0.0969 -1.3601
 1317SOL     OW 3764   0.928   2.153   0.148 -0.3061  0.3385  0.3305
 1317SOL    HW1 3765   0.995   2.215   0.119 -0.1240 -0.3429 -0.7888
 1317SOL    HW2 3766   0.878   2.200   0.215 -1.4256  2.4545 -1.8365
 1318SOL     OW 3767   3.048   2.571   1.475  0.8396  0.4809 -0.3963
 1318SOL    HW1 3768   3.085   2.534   1.394  1.4082  1.4187 -0.5836
 1318SOL    HW2 3769   2.956   2.545   1.473  1.1363 -0.6049 -0.6920
 1319SOL     OW 3770   1.856   2.193   1.452  0.2546 -0.2466 -0.2700
 1319SOL    HW1 3771   1.831   2.284   1.436 -0.2758  0.1274  2.2053
 1319SOL    HW2 3772   1.775   2.144   1.440  0.2796 -0.2290 -0.5089
 1320SOL     OW 3773   3.080   1.463   1.695  0.1777  0.3737 -0.0400
 1320SOL    HW1 3774   3.009   1.488   1.635 -0.4492  0.9536  0.9224
 1320SOL    HW2 3775   3.075   1.368   1.701  1.4584  0.0742 -2.3622
 1321SOL     OW 3776   3.069   3.371   1.309 -0.2239 -0.9163 -0.0384
 1321SOL    HW1 3777   3.134   3.305   1.283  0.8980  0.1107  0.0406
 1321SOL    HW2 3778   3.102   3.452   1.271 -0.5689 -0.0676  1.4065
 1322SOL     OW 3779   0.833   1.052   1.142 -0.5775  0.3797 -0.3264
 1322SOL    HW1 3780   0.862   0.967   1.175 -0.5233  0.0868 -1.1069
 1322SOL    HW2 3781   0.752   1.032   1.093 -0.3439  0.7095 -0.8509
 1323SOL     OW 3782   1.294   3.292   1.588  0.2301 -0.1093  1.0303
 1323SOL    HW1 3783   1.304   3.298   1.493  1.3703  1.3806  1.2059
 1323SOL    HW2 3784   1.340   3.368   1.621 -0.5183 -0.3790  2.7745
 1324SOL     OW 3785   1.423   3.285   2.608 -0.0272  0.0140  0.2443
 1324SOL    HW1 3786   1.477   3.354   2.571  0.6554 -1.3944 -1.5313
 1324SOL    HW2 3787   1.484   3.217   2.634 -0.8302 -1.2926 -1.1052
 1325SOL     OW 3788   2.200   2.111   1.035  0.4673 -0.0661  0.1246
 1325SOL    HW1 3789   2.178   2.178   1.101  2.3502 -0.6209  1.3802
 1325SOL    HW2 3790   2.214   2.031   1.086 -0.4858 -1.1431 -1.2339
 1326SOL     OW 3791   0.497   3.005   2.982 -0.0284  0.2151  0.6730
 1326SOL    HW1 3792   0.539   3.062   2.918  1.4579 -1.3882  0.1378
 1326SOL    HW2 3793   0.462   3.065   3.048  0.1891  1.7981 -0.5765
 1327SOL     OW 3794   1.211   2.454   2.469  1.0609  0.2170 -0.2686
 1327SOL    HW1 3795   1.200   2.544   2.499 -0.8706 -0.5987  1.7054
 1327SOL    HW2 3796   1.177   2.454   2.380  1.9297  1.5787 -0.6375
 1328SOL     OW 3797   1.489   0.427   1.508 -0.2374  0.6525  0.1694
 1328SOL    HW1 3798   1.410   0.427   1.562  0.4926 -0.4377  1.2970
 1328SOL    HW2 3799   1.474   0.359   1.443 -0.4656  0.8659 -0.0033
 1329SOL     OW 3800   1.247   1.233   0.398  0.0019 -0.0565 -0.4476
 1329SOL    HW1 3801   1.306   1.301   0.430  0.1675 -0.0081 -0.8461
 1329SOL    HW2 3802   1.211   1.193   0.477 -0.8543  1.1478 -0.2072
 1330SOL     OW 3803   3.323   3.083   1.872  0.3127  0.0608  0.2407
 1330SOL    HW1 3804   3.418   3.096   1.880  0.3416 -0.3977  0.6676
 1330SOL    HW2 3805   3.309   2.994   1.903  0.1724 -1.1550 -2.8881
 1331SOL     OW 3806   3.229   2.920   3.087 -0.3191  0.4861 -0.0820
 1331SOL    HW1 3807   3.163   2.871   3.136 -0.7205  0.2734 -0.8231
 1331SOL    HW2 3808   3.283   2.853   3.045  0.3308  0.6590  0.4500
 1332SOL     OW 3809   3.303   0.006   2.273  0.0921  0.2048 -0.6457
 1332SOL    HW1 3810   3.376  -0.056   2.269 -0.4015 -0.9568  3.4120
 1332SOL    HW2 3811   3.248  -0.016   2.197  0.9638 -3.0214 -0.4811
 1333SOL     OW 3812   2.517   0.654   1.126 -0.2814 -0.0874  0.1321
 1333SOL    HW1 3813   2.611   0.645   1.142 -0.0226  2.8669  0.9096
 1333SOL    HW2 3814   2.509   0.656   1.031  0.5183  0.0617  0.0582
 1334SOL     OW 3815   1.787   2.421   0.473  0.5148 -0.1961 -0.4576
 1334SOL    HW1 3816   1.713   2.423   0.534  0.2889 -1.1045 -0.6822
 1334SOL    HW2 3817   1.746   2.404   0.388  0.7099  2.1412 -1.0805
 1335SOL     OW 3818   3.113   2.162   1.186 -0.1729  0.1465 -0.1996
 1335SOL    HW1 3819   3.026   2.174   1.147  0.0797  0.1763 -0.7608
 1335SOL    HW2 3820   3.134   2.248   1.223  0.5475  0.7916 -1.9910
 1336SOL     OW 3821   3.119   1.248   1.086  0.7169 -0.4114 -0.3744
 1336SOL    HW1 3822   3.055   1.300   1.038  0.0931 -1.5798 -0.8500
 1336SOL    HW2 3823   3.096   1.259   1.178  2.1010  2.0905 -0.2367
 1337SOL     OW 3824   1.479   3.183   0.713 -0.2550 -0.1029 -0.1924
 1337SOL    HW1 3825   1.498   3.156   0.803  1.5708  0.6624 -0.2997
 1337SOL    HW2 3826   1.504   3.108   0.659  2.0486  0.6230 -0.2694
 1338SOL     OW 3827   1.829   2.443   0.059 -0.5799  0.4217  0.1071
 1338SOL    HW1 3828   1.789   2.500   0.125 -1.2663  0.3905 -0.2720
 1338SOL    HW2 3829   1.835   2.358   0.102 -1.8281  0.1876 -0.1464
 1339SOL     OW 3830   3.333   2.080   3.231  0.1345 -0.3585  0.3489
 1339SOL    HW1 3831   3.272   2.113   3.165  0.3729 -2.8415 -1.2399
 1339SOL    HW2 3832   3.337   2.150   3.297 -1.7923  1.3022 -1.1581
 1340SOL     OW 3833   2.652   0.695   2.981  0.5909 -0.5385 -0.2482
 1340SOL    HW1 3834   2.569   0.733   3.009  2.1704  2.3848  0.8501
 1340SOL    HW2 3835   2.628   0.636   2.909 -2.3260  0.9106 -0.6077
 1341SOL     OW 3836   0.061   1.114   0.322 -0.0502  0.0718  0.5011
 1341SOL    HW1 3837  -0.005   1.181   0.303  0.8154  0.9820  0.6624
 1341SOL    HW2 3838   0.035   1.040   0.267 -1.5830  0.1525  1.0379
 1342SOL     OW 3839   1.267   1.392   0.711 -0.0982  0.0639 -0.3100
 1342SOL    HW1 3840   1.182   1.436   0.721 -0.1436  0.0352 -0.5594
 1342SOL    HW2 3841   1.307   1.397   0.798 -0.2621  0.2712 -0.2452
 1343SOL     OW 3842   2.698   3.215   1.425  0.4522 -0.5100  0.2534
 1343SOL    HW1 3843   2.668   3.303   1.446 -1.2306 -1.4779  2.2537
 1343SOL    HW2 3844   2.673   3.202   1.334 -0.1485  0.7483  0.2229
 1344SOL     OW 3845   1.000   3.194   2.012 -0.1128  0.3374 -0.0911
 1344SOL    HW1 3846   0.990   3.202   2.106 -0.6346 -1.6737  0.0723
 1344SOL    HW2 3847   1.094   3.201   1.997  0.1276 -0.6779  0.7719
 1345SOL     OW 3848   0.514   2.356   1.955  0.3744 -0.5287 -0.2218
 1345SOL    HW1 3849   0.449   2.418   1.921 -0.5130 -1.0772  0.4208
 1345SOL    HW2 3850   0.528   2.294   1.883  2.4403  1.2384 -1.4508
 1346SOL     OW 3851   1.116   3.118   1.194 -0.7056 -0.0186 -0.2258
 1346SOL    HW1 3852   1.086   3.072   1.116 -1.6244 -1.3523  0.8801
 1346SOL    HW2 3853   1.041   3.169   1.223 -1.3019 -1.7029  1.3386
 1347SOL     OW 3854   2.461   0.335   1.659  0.0135  0.0751 -0.2246
 1347SOL    HW1 3855   2.444   0.365   1.748  1.5332 -0.3090  0.2223
 1347SOL    HW2 3856   2.381   0.290   1.633 -0.8556  1.1522  0.5203
 1348SOL     OW 3857   1.490   0.512   2.113 -0.0685 -0.3044  0.0916
 1348SOL    HW1 3858   1.484   0.588   2.171  0.3925 -2.0831  2.6094
 1348SOL    HW2 3859   1.580   0.515   2.081 -0.4711  0.9733 -1.0421
 1349SOL     OW 3860   0.977   1.258   1.412  0.1060  0.5106 -0.4525
 1349SOL    HW1 3861   1.021   1.176   1.392 -0.3362  0.3677 -0.8552
 1349SOL    HW2 3862   0.887   1.244   1.384 -0.3628  0.5717  0.9465
 1350SOL     OW 3863   1.000   0.054   1.716  0.3133  0.4713 -0.6501
 1350SOL    HW1 3864   0.911   0.062   1.684  0.1824 -0.4386 -0.5405
 1350SOL    HW2 3865   1.049   0.122   1.669 -0.7513  2.1582  0.5588
 1351SOL     OW 3866   3.256   2.694   0.403 -0.3031  0.3123  0.2713
 1351SOL    HW1 3867   3.308   2.632   0.454 -0.2296  0.0372 -0.1350
 1351SOL    HW2 3868   3.165   2.676   0.429 -0.4304 -0.9699 -0.8811
 1352SOL     OW 3869   1.046   3.220   0.695 -0.0139  0.9792  0.9801
 1352SOL    HW1 3870   1.096   3.282   0.643  0.0577 -0.4477 -0.7632
 1352SOL    HW2 3871   0.956   3.231   0.665  0.0840 -0.1193  0.2069
 1353SOL     OW 3872   2.073   3.039   2.335 -0.1652  0.2049  0.7291
 1353SOL    HW1 3873   2.134   2.966   2.332 -1.1601 -0.7375  2.0888
 1353SOL    HW2 3874   1.995   3.007   2.289 -1.3488 -0.4038  2.9904
 1354SOL     OW 3875   2.703   0.052   2.814 -0.2981  0.0507  0.6109
 1354SOL    HW1 3876   2.652   0.042   2.734 -0.5203  0.6098  0.6741
 1354SOL    HW2 3877   2.789   0.083   2.784 -0.4362  0.4252  0.5997
 1355SOL     OW 3878   1.303   2.433   1.095 -0.1205 -0.0046 -0.5596
 1355SOL    HW1 3879   1.294   2.339   1.109  0.3955  0.2786  2.0958
 1355SOL    HW2 3880   1.224   2.457   1.046 -0.0989 -1.8257 -1.5926
 1356SOL     OW 3881   0.989   3.080   2.904 -0.3262 -0.4854 -0.0087
 1356SOL    HW1 3882   0.982   3.132   2.824  1.8716  0.0293  0.0738
 1356SOL    HW2 3883   0.963   2.991   2.877 -1.5924  0.0882 -0.7636
 1357NA      NA 3884   2.944   0.684   2.557 -0.2281 -0.5317 -0.2997
 1358NA      NA 3885   1.476   0.331   2.265 -0.0455 -0.3530 -0.0999
 1359NA      NA 3886   2.088   1.223   2.311  0.0212  0.6005  0.2513
 1360NA      NA 3887   0.038   1.835   1.049 -0.4229  0.0129 -0.1746
 1361CL      CL 3888   0.322   1.331   2.085 -0.2664  0.2396 -0.2245
 1362CL      CL 3889   2.767   1.205   1.447 -0.0586  0.1028  0.0464
 1363CL      CL 3890   0.477   1.010   1.280 -0.2770  0.1164  0.2246
 1364CL      CL 3891   3.336   0.666   2.970  0.5831 -0.3423  0.1524
   3.38321   3.38321   3.38321
